# vtk DataFile Version 2.0
A mesh
ASCII
DATASET UNSTRUCTURED_GRID
POINTS 55 double
0.000000000000000E+00 0.000000000000000E+00 0.000000000000000E+00
5.000000000000000E-01 0.000000000000000E+00 0.000000000000000E+00
1.000000000000000E+00 0.000000000000000E+00 0.000000000000000E+00
1.500000000000000E+00 0.000000000000000E+00 0.000000000000000E+00
2.000000000000000E+00 0.000000000000000E+00 0.000000000000000E+00
0.000000000000000E+00 1.000000000000000E-01 0.000000000000000E+00
5.000000000000000E-01 1.000000000000000E-01 0.000000000000000E+00
1.000000000000000E+00 1.000000000000000E-01 0.000000000000000E+00
1.500000000000000E+00 1.000000000000000E-01 0.000000000000000E+00
2.000000000000000E+00 1.000000000000000E-01 0.000000000000000E+00
0.000000000000000E+00 2.000000000000000E-01 0.000000000000000E+00
5.000000000000000E-01 2.000000000000000E-01 0.000000000000000E+00
1.000000000000000E+00 2.000000000000000E-01 0.000000000000000E+00
1.500000000000000E+00 2.000000000000000E-01 0.000000000000000E+00
2.000000000000000E+00 2.000000000000000E-01 0.000000000000000E+00
0.000000000000000E+00 3.000000000000000E-01 0.000000000000000E+00
5.000000000000000E-01 3.000000000000000E-01 0.000000000000000E+00
1.000000000000000E+00 3.000000000000000E-01 0.000000000000000E+00
1.500000000000000E+00 3.000000000000000E-01 0.000000000000000E+00
2.000000000000000E+00 3.000000000000000E-01 0.000000000000000E+00
0.000000000000000E+00 4.000000000000000E-01 0.000000000000000E+00
5.000000000000000E-01 4.000000000000000E-01 0.000000000000000E+00
1.000000000000000E+00 4.000000000000000E-01 0.000000000000000E+00
1.500000000000000E+00 4.000000000000000E-01 0.000000000000000E+00
2.000000000000000E+00 4.000000000000000E-01 0.000000000000000E+00
0.000000000000000E+00 5.000000000000000E-01 0.000000000000000E+00
5.000000000000000E-01 5.000000000000000E-01 0.000000000000000E+00
1.000000000000000E+00 5.000000000000000E-01 0.000000000000000E+00
1.500000000000000E+00 5.000000000000000E-01 0.000000000000000E+00
2.000000000000000E+00 5.000000000000000E-01 0.000000000000000E+00
0.000000000000000E+00 6.000000000000001E-01 0.000000000000000E+00
5.000000000000000E-01 6.000000000000001E-01 0.000000000000000E+00
1.000000000000000E+00 6.000000000000001E-01 0.000000000000000E+00
1.500000000000000E+00 6.000000000000001E-01 0.000000000000000E+00
2.000000000000000E+00 6.000000000000001E-01 0.000000000000000E+00
0.000000000000000E+00 7.000000000000001E-01 0.000000000000000E+00
5.000000000000000E-01 7.000000000000001E-01 0.000000000000000E+00
1.000000000000000E+00 7.000000000000001E-01 0.000000000000000E+00
1.500000000000000E+00 7.000000000000001E-01 0.000000000000000E+00
2.000000000000000E+00 7.000000000000001E-01 0.000000000000000E+00
0.000000000000000E+00 8.000000000000000E-01 0.000000000000000E+00
5.000000000000000E-01 8.000000000000000E-01 0.000000000000000E+00
1.000000000000000E+00 8.000000000000000E-01 0.000000000000000E+00
1.500000000000000E+00 8.000000000000000E-01 0.000000000000000E+00
2.000000000000000E+00 8.000000000000000E-01 0.000000000000000E+00
0.000000000000000E+00 9.000000000000001E-01 0.000000000000000E+00
5.000000000000000E-01 9.000000000000001E-01 0.000000000000000E+00
1.000000000000000E+00 9.000000000000001E-01 0.000000000000000E+00
1.500000000000000E+00 9.000000000000001E-01 0.000000000000000E+00
2.000000000000000E+00 9.000000000000001E-01 0.000000000000000E+00
0.000000000000000E+00 1.000000000000000E+00 0.000000000000000E+00
5.000000000000000E-01 1.000000000000000E+00 0.000000000000000E+00
1.000000000000000E+00 1.000000000000000E+00 0.000000000000000E+00
1.500000000000000E+00 1.000000000000000E+00 0.000000000000000E+00
2.000000000000000E+00 1.000000000000000E+00 0.000000000000000E+00

CELLS 40 200
4 0 1 6 5
4 1 2 7 6
4 2 3 8 7
4 3 4 9 8
4 5 6 11 10
4 6 7 12 11
4 7 8 13 12
4 8 9 14 13
4 10 11 16 15
4 11 12 17 16
4 12 13 18 17
4 13 14 19 18
4 15 16 21 20
4 16 17 22 21
4 17 18 23 22
4 18 19 24 23
4 20 21 26 25
4 21 22 27 26
4 22 23 28 27
4 23 24 29 28
4 25 26 31 30
4 26 27 32 31
4 27 28 33 32
4 28 29 34 33
4 30 31 36 35
4 31 32 37 36
4 32 33 38 37
4 33 34 39 38
4 35 36 41 40
4 36 37 42 41
4 37 38 43 42
4 38 39 44 43
4 40 41 46 45
4 41 42 47 46
4 42 43 48 47
4 43 44 49 48
4 45 46 51 50
4 46 47 52 51
4 47 48 53 52
4 48 49 54 53

CELL_TYPES 40
9
9
9
9
9
9
9
9
9
9
9
9
9
9
9
9
9
9
9
9
9
9
9
9
9
9
9
9
9
9
9
9
9
9
9
9
9
9
9
9

CELL_DATA 40
SCALARS FLUX_1 double 1
LOOKUP_TABLE default
5.356985257778757E-01
8.185102463789643E-01
7.942324908959280E-01
5.958159543511342E-01
5.356985273678524E-01
8.185102472989162E-01
7.942324905040193E-01
5.958159542568767E-01
5.356985275443295E-01
8.185102478642527E-01
7.942324922342064E-01
5.958159538310793E-01
5.356985287339110E-01
8.185102488401742E-01
7.942324939827701E-01
5.958159527672229E-01
5.356985302074795E-01
8.185102495862361E-01
7.942324946686968E-01
5.958159511606003E-01
5.356985312861590E-01
8.185102495958686E-01
7.942324943083878E-01
5.958159494194443E-01
5.356985317307661E-01
8.185102488235347E-01
7.942324935291225E-01
5.958159479181899E-01
5.356985316408567E-01
8.185102474345545E-01
7.942324929788086E-01
5.958159466927549E-01
5.356985312758270E-01
8.185102452976731E-01
7.942324928197740E-01
5.958159456039789E-01
5.356985309284532E-01
8.185102415493285E-01
7.942324925293980E-01
5.958159456501065E-01

SCALARS FLUX_2 double 1
LOOKUP_TABLE default
3.494571601087110E-01
5.205420399700672E-01
4.812108056370784E-01
3.576330962619154E-01
3.494571605079052E-01
5.205420397984808E-01
4.812108055547868E-01
3.576330966474932E-01
3.494571607039832E-01
5.205420403792294E-01
4.812108058998388E-01
3.576330969416983E-01
3.494571611187714E-01
5.205420409171926E-01
4.812108062047602E-01
3.576330970695480E-01
3.494571615754755E-01
5.205420412415959E-01
4.812108062919528E-01
3.576330970448763E-01
3.494571619114579E-01
5.205420412680134E-01
4.812108061635255E-01
3.576330969133817E-01
3.494571620661119E-01
5.205420409894848E-01
4.812108059093671E-01
3.576330967599322E-01
3.494571620674192E-01
5.205420404437887E-01
4.812108056505832E-01
3.576330967030985E-01
3.494571619946686E-01
5.205420396693015E-01
4.812108054671418E-01
3.576330967955227E-01
3.494571619413752E-01
5.205420388053759E-01
4.812108052164475E-01
3.576330966889091E-01

