# vtk DataFile Version 2.0
A mesh
ASCII
DATASET UNSTRUCTURED_GRID
POINTS 1891 double
0.000000000000000E+00 0.000000000000000E+00 0.000000000000000E+00
3.333333333333333E-02 0.000000000000000E+00 0.000000000000000E+00
6.666666666666667E-02 0.000000000000000E+00 0.000000000000000E+00
9.999999999999999E-02 0.000000000000000E+00 0.000000000000000E+00
1.333333333333333E-01 0.000000000000000E+00 0.000000000000000E+00
1.666666666666667E-01 0.000000000000000E+00 0.000000000000000E+00
2.000000000000000E-01 0.000000000000000E+00 0.000000000000000E+00
2.333333333333333E-01 0.000000000000000E+00 0.000000000000000E+00
2.666666666666667E-01 0.000000000000000E+00 0.000000000000000E+00
3.000000000000000E-01 0.000000000000000E+00 0.000000000000000E+00
3.333333333333333E-01 0.000000000000000E+00 0.000000000000000E+00
3.666666666666666E-01 0.000000000000000E+00 0.000000000000000E+00
4.000000000000000E-01 0.000000000000000E+00 0.000000000000000E+00
4.333333333333333E-01 0.000000000000000E+00 0.000000000000000E+00
4.666666666666667E-01 0.000000000000000E+00 0.000000000000000E+00
5.000000000000000E-01 0.000000000000000E+00 0.000000000000000E+00
5.333333333333333E-01 0.000000000000000E+00 0.000000000000000E+00
5.666666666666668E-01 0.000000000000000E+00 0.000000000000000E+00
6.000000000000001E-01 0.000000000000000E+00 0.000000000000000E+00
6.333333333333334E-01 0.000000000000000E+00 0.000000000000000E+00
6.666666666666667E-01 0.000000000000000E+00 0.000000000000000E+00
7.000000000000001E-01 0.000000000000000E+00 0.000000000000000E+00
7.333333333333334E-01 0.000000000000000E+00 0.000000000000000E+00
7.666666666666667E-01 0.000000000000000E+00 0.000000000000000E+00
8.000000000000000E-01 0.000000000000000E+00 0.000000000000000E+00
8.333333333333334E-01 0.000000000000000E+00 0.000000000000000E+00
8.666666666666667E-01 0.000000000000000E+00 0.000000000000000E+00
9.000000000000000E-01 0.000000000000000E+00 0.000000000000000E+00
9.333333333333333E-01 0.000000000000000E+00 0.000000000000000E+00
9.666666666666667E-01 0.000000000000000E+00 0.000000000000000E+00
1.000000000000000E+00 0.000000000000000E+00 0.000000000000000E+00
1.033333333333333E+00 0.000000000000000E+00 0.000000000000000E+00
1.066666666666667E+00 0.000000000000000E+00 0.000000000000000E+00
1.100000000000000E+00 0.000000000000000E+00 0.000000000000000E+00
1.133333333333333E+00 0.000000000000000E+00 0.000000000000000E+00
1.166666666666667E+00 0.000000000000000E+00 0.000000000000000E+00
1.200000000000000E+00 0.000000000000000E+00 0.000000000000000E+00
1.233333333333333E+00 0.000000000000000E+00 0.000000000000000E+00
1.266666666666667E+00 0.000000000000000E+00 0.000000000000000E+00
1.300000000000000E+00 0.000000000000000E+00 0.000000000000000E+00
1.333333333333333E+00 0.000000000000000E+00 0.000000000000000E+00
1.366666666666667E+00 0.000000000000000E+00 0.000000000000000E+00
1.400000000000000E+00 0.000000000000000E+00 0.000000000000000E+00
1.433333333333333E+00 0.000000000000000E+00 0.000000000000000E+00
1.466666666666667E+00 0.000000000000000E+00 0.000000000000000E+00
1.500000000000000E+00 0.000000000000000E+00 0.000000000000000E+00
1.533333333333333E+00 0.000000000000000E+00 0.000000000000000E+00
1.566666666666667E+00 0.000000000000000E+00 0.000000000000000E+00
1.600000000000000E+00 0.000000000000000E+00 0.000000000000000E+00
1.633333333333333E+00 0.000000000000000E+00 0.000000000000000E+00
1.666666666666667E+00 0.000000000000000E+00 0.000000000000000E+00
1.700000000000000E+00 0.000000000000000E+00 0.000000000000000E+00
1.733333333333333E+00 0.000000000000000E+00 0.000000000000000E+00
1.766666666666667E+00 0.000000000000000E+00 0.000000000000000E+00
1.800000000000000E+00 0.000000000000000E+00 0.000000000000000E+00
1.833333333333333E+00 0.000000000000000E+00 0.000000000000000E+00
1.866666666666667E+00 0.000000000000000E+00 0.000000000000000E+00
1.900000000000000E+00 0.000000000000000E+00 0.000000000000000E+00
1.933333333333333E+00 0.000000000000000E+00 0.000000000000000E+00
1.966666666666667E+00 0.000000000000000E+00 0.000000000000000E+00
2.000000000000000E+00 0.000000000000000E+00 0.000000000000000E+00
0.000000000000000E+00 3.333333333333333E-02 0.000000000000000E+00
3.333333333333333E-02 3.333333333333333E-02 0.000000000000000E+00
6.666666666666667E-02 3.333333333333333E-02 0.000000000000000E+00
9.999999999999999E-02 3.333333333333333E-02 0.000000000000000E+00
1.333333333333333E-01 3.333333333333333E-02 0.000000000000000E+00
1.666666666666667E-01 3.333333333333333E-02 0.000000000000000E+00
2.000000000000000E-01 3.333333333333333E-02 0.000000000000000E+00
2.333333333333333E-01 3.333333333333333E-02 0.000000000000000E+00
2.666666666666667E-01 3.333333333333333E-02 0.000000000000000E+00
3.000000000000000E-01 3.333333333333333E-02 0.000000000000000E+00
3.333333333333333E-01 3.333333333333333E-02 0.000000000000000E+00
3.666666666666666E-01 3.333333333333333E-02 0.000000000000000E+00
4.000000000000000E-01 3.333333333333333E-02 0.000000000000000E+00
4.333333333333333E-01 3.333333333333333E-02 0.000000000000000E+00
4.666666666666667E-01 3.333333333333333E-02 0.000000000000000E+00
5.000000000000000E-01 3.333333333333333E-02 0.000000000000000E+00
5.333333333333333E-01 3.333333333333333E-02 0.000000000000000E+00
5.666666666666668E-01 3.333333333333333E-02 0.000000000000000E+00
6.000000000000001E-01 3.333333333333333E-02 0.000000000000000E+00
6.333333333333334E-01 3.333333333333333E-02 0.000000000000000E+00
6.666666666666667E-01 3.333333333333333E-02 0.000000000000000E+00
7.000000000000001E-01 3.333333333333333E-02 0.000000000000000E+00
7.333333333333334E-01 3.333333333333333E-02 0.000000000000000E+00
7.666666666666667E-01 3.333333333333333E-02 0.000000000000000E+00
8.000000000000000E-01 3.333333333333333E-02 0.000000000000000E+00
8.333333333333334E-01 3.333333333333333E-02 0.000000000000000E+00
8.666666666666667E-01 3.333333333333333E-02 0.000000000000000E+00
9.000000000000000E-01 3.333333333333333E-02 0.000000000000000E+00
9.333333333333333E-01 3.333333333333333E-02 0.000000000000000E+00
9.666666666666667E-01 3.333333333333333E-02 0.000000000000000E+00
1.000000000000000E+00 3.333333333333333E-02 0.000000000000000E+00
1.033333333333333E+00 3.333333333333333E-02 0.000000000000000E+00
1.066666666666667E+00 3.333333333333333E-02 0.000000000000000E+00
1.100000000000000E+00 3.333333333333333E-02 0.000000000000000E+00
1.133333333333333E+00 3.333333333333333E-02 0.000000000000000E+00
1.166666666666667E+00 3.333333333333333E-02 0.000000000000000E+00
1.200000000000000E+00 3.333333333333333E-02 0.000000000000000E+00
1.233333333333333E+00 3.333333333333333E-02 0.000000000000000E+00
1.266666666666667E+00 3.333333333333333E-02 0.000000000000000E+00
1.300000000000000E+00 3.333333333333333E-02 0.000000000000000E+00
1.333333333333333E+00 3.333333333333333E-02 0.000000000000000E+00
1.366666666666667E+00 3.333333333333333E-02 0.000000000000000E+00
1.400000000000000E+00 3.333333333333333E-02 0.000000000000000E+00
1.433333333333333E+00 3.333333333333333E-02 0.000000000000000E+00
1.466666666666667E+00 3.333333333333333E-02 0.000000000000000E+00
1.500000000000000E+00 3.333333333333333E-02 0.000000000000000E+00
1.533333333333333E+00 3.333333333333333E-02 0.000000000000000E+00
1.566666666666667E+00 3.333333333333333E-02 0.000000000000000E+00
1.600000000000000E+00 3.333333333333333E-02 0.000000000000000E+00
1.633333333333333E+00 3.333333333333333E-02 0.000000000000000E+00
1.666666666666667E+00 3.333333333333333E-02 0.000000000000000E+00
1.700000000000000E+00 3.333333333333333E-02 0.000000000000000E+00
1.733333333333333E+00 3.333333333333333E-02 0.000000000000000E+00
1.766666666666667E+00 3.333333333333333E-02 0.000000000000000E+00
1.800000000000000E+00 3.333333333333333E-02 0.000000000000000E+00
1.833333333333333E+00 3.333333333333333E-02 0.000000000000000E+00
1.866666666666667E+00 3.333333333333333E-02 0.000000000000000E+00
1.900000000000000E+00 3.333333333333333E-02 0.000000000000000E+00
1.933333333333333E+00 3.333333333333333E-02 0.000000000000000E+00
1.966666666666667E+00 3.333333333333333E-02 0.000000000000000E+00
2.000000000000000E+00 3.333333333333333E-02 0.000000000000000E+00
0.000000000000000E+00 6.666666666666667E-02 0.000000000000000E+00
3.333333333333333E-02 6.666666666666667E-02 0.000000000000000E+00
6.666666666666667E-02 6.666666666666667E-02 0.000000000000000E+00
9.999999999999999E-02 6.666666666666667E-02 0.000000000000000E+00
1.333333333333333E-01 6.666666666666667E-02 0.000000000000000E+00
1.666666666666667E-01 6.666666666666667E-02 0.000000000000000E+00
2.000000000000000E-01 6.666666666666667E-02 0.000000000000000E+00
2.333333333333333E-01 6.666666666666667E-02 0.000000000000000E+00
2.666666666666667E-01 6.666666666666667E-02 0.000000000000000E+00
3.000000000000000E-01 6.666666666666667E-02 0.000000000000000E+00
3.333333333333333E-01 6.666666666666667E-02 0.000000000000000E+00
3.666666666666666E-01 6.666666666666667E-02 0.000000000000000E+00
4.000000000000000E-01 6.666666666666667E-02 0.000000000000000E+00
4.333333333333333E-01 6.666666666666667E-02 0.000000000000000E+00
4.666666666666667E-01 6.666666666666667E-02 0.000000000000000E+00
5.000000000000000E-01 6.666666666666667E-02 0.000000000000000E+00
5.333333333333333E-01 6.666666666666667E-02 0.000000000000000E+00
5.666666666666668E-01 6.666666666666667E-02 0.000000000000000E+00
6.000000000000001E-01 6.666666666666667E-02 0.000000000000000E+00
6.333333333333334E-01 6.666666666666667E-02 0.000000000000000E+00
6.666666666666667E-01 6.666666666666667E-02 0.000000000000000E+00
7.000000000000001E-01 6.666666666666667E-02 0.000000000000000E+00
7.333333333333334E-01 6.666666666666667E-02 0.000000000000000E+00
7.666666666666667E-01 6.666666666666667E-02 0.000000000000000E+00
8.000000000000000E-01 6.666666666666667E-02 0.000000000000000E+00
8.333333333333334E-01 6.666666666666667E-02 0.000000000000000E+00
8.666666666666667E-01 6.666666666666667E-02 0.000000000000000E+00
9.000000000000000E-01 6.666666666666667E-02 0.000000000000000E+00
[...]
CELL_DATA 1800
SCALARS FLUX_1 double 1
LOOKUP_TABLE default
3.618300856851434E-01
4.273723202374267E-01
4.860037863434348E-01
5.379872663865930E-01
5.837743989381259E-01
6.239045657911216E-01
6.589427523224971E-01
6.894426423183161E-01
7.159258395232028E-01
7.388713694690128E-01
7.587114909555143E-01
7.758313538035908E-01
7.905708698213576E-01
8.032277638765316E-01
8.140611250863805E-01
8.232951415322303E-01
8.311227152618714E-01
8.377088637438689E-01
8.431938903011710E-01
8.476962829923343E-01
8.513154185975087E-01
8.541341558760970E-01
8.562214407388676E-01
8.576351351888979E-01
8.584253596351035E-01
8.586387600875687E-01
8.583243456066351E-01
8.575418535757195E-01
8.563740178441110E-01
8.549448840326920E-01
8.539527857650591E-01
8.529006744951376E-01
8.512809874291269E-01
8.490884612393058E-01
8.463147570289540E-01
8.429484758595145E-01
8.389751552032062E-01
8.343772476557730E-01
8.291340849023401E-01
8.232218281350481E-01
8.166134015231921E-01
8.092784145965567E-01
8.011830702564365E-01
7.922900609637713E-01
7.825584552446269E-01
7.719435736336481E-01
7.603968580620418E-01
7.478657306261688E-01
7.342934479835588E-01
7.196189505547431E-01
7.037767101663126E-01
6.866965788995962E-01
6.683036393928250E-01
6.485180644367029E-01
6.272549861998928E-01
6.044243797265301E-01
5.799309712461789E-01
5.536741748241687E-01
5.255480666867816E-01
4.954414054471217E-01
3.618300856371146E-01
4.273723203013058E-01
4.860037863910289E-01
5.379872661893252E-01
5.837743991703375E-01
6.239045656917502E-01
6.589427522278670E-01
6.894426425152759E-01
7.159258393741118E-01
7.388713694898495E-01
7.587114910182117E-01
7.758313537609574E-01
7.905708697981401E-01
8.032277639329980E-01
8.140611250266772E-01
8.232951416094519E-01
8.311227151400911E-01
8.377088639311797E-01
8.431938900396717E-01
8.476962832838930E-01
8.513154183837766E-01
8.541341559254187E-01
8.562214408236095E-01
8.576351351009994E-01
8.584253596139281E-01
8.586387602053597E-01
8.583243455188548E-01
8.575418535170901E-01
8.563740180340438E-01
8.549448838585010E-01
8.539527857002078E-01
8.529006743175368E-01
8.512809875614424E-01
8.490884611085046E-01
8.463147567106346E-01
8.429484755456536E-01
8.389751550346536E-01
8.343772472075621E-01
8.291340848800969E-01
8.232218278462637E-01
8.166134012349147E-01
8.092784147940758E-01
8.011830707563240E-01
7.922900617848559E-01
7.825584556006207E-01
7.719435741727230E-01
7.603968581562388E-01
7.478657304672404E-01
7.342934476553994E-01
7.196189502065067E-01
7.037767099529145E-01
6.866965783648524E-01
6.683036391007994E-01
6.485180648879811E-01
6.272549866021160E-01
6.044243799797845E-01
5.799309711331513E-01
5.536741750395654E-01
5.255480665020401E-01
4.954414051800583E-01
3.618300857024778E-01
4.273723202274965E-01
4.860037862839604E-01
5.379872665158879E-01
5.837743988169926E-01
6.239045658265230E-01
6.589427523718191E-01
6.894426422507258E-01
7.159258395452108E-01
7.388713695051097E-01
7.587114909080082E-01
7.758313537971503E-01
7.905708699040381E-01
8.032277637450582E-01
8.140611252356117E-01
8.232951413843067E-01
8.311227153883751E-01
8.377088636407570E-01
8.431938904125131E-01
8.476962828529900E-01
8.513154187289048E-01
8.541341558104967E-01
8.562214407240297E-01
8.576351352415519E-01
8.584253596029262E-01
8.586387600748113E-01
8.583243456402309E-01
8.575418535614285E-01
8.563740178271293E-01
8.549448840432198E-01
8.539527858822161E-01
8.529006744800351E-01
8.512809873154150E-01
8.490884613358268E-01
8.463147569596147E-01
8.429484760581927E-01
8.389751550423871E-01
8.343772476698744E-01
8.291340848529357E-01
8.232218281787831E-01
8.166134016166435E-01
8.092784144718216E-01
8.011830703061540E-01
7.922900608230681E-01
7.825584553321866E-01
7.719435737184802E-01
7.603968582259306E-01
7.478657305703212E-01
7.342934479645488E-01
7.196189504103983E-01
7.037767100459880E-01
6.866965788292471E-01
6.683036394745108E-01
6.485180644570786E-01
6.272549863273419E-01
6.044243796243474E-01
5.799309714568699E-01
5.536741747825740E-01
5.255480666613069E-01
4.954414053653663E-01
3.618300856663734E-01
4.273723202237966E-01
4.860037864918228E-01
5.379872661128312E-01
5.837743991940338E-01
6.239045656876374E-01
6.589427522763025E-01
6.894426424065332E-01
7.159258394939005E-01
7.388713694143615E-01
7.587114910306102E-01
7.758313538039350E-01
7.905708697120588E-01
8.032277640566566E-01
8.140611248728692E-01
8.232951417557378E-01
8.311227150664077E-01
8.377088639005102E-01
8.431938901290217E-01
8.476962832207748E-01
8.513154183685256E-01
8.541341560062441E-01
8.562214407405820E-01
8.576351351145398E-01
8.584253596932521E-01
8.586387600885935E-01
8.583243455739845E-01
8.575418535855422E-01
8.563740178720948E-01
8.549448840218058E-01
8.539527856051352E-01
8.529006744284345E-01
8.512809878184954E-01
8.490884610752732E-01
8.463147569384629E-01
8.429484758222096E-01
8.389751553285976E-01
8.343772475395380E-01
8.291340850085300E-01
8.232218280350925E-01
8.166134013267052E-01
8.092784147377331E-01
8.011830702989222E-01
7.922900613525534E-01
7.825584550718573E-01
7.719435735315348E-01
7.603968578743313E-01
7.478657305907135E-01
7.342934479527151E-01
7.196189505964512E-01
7.037767104627528E-01
6.866965789446470E-01
6.683036391794279E-01
6.485180645999796E-01
6.272549861388815E-01
6.044243798137440E-01
5.799309709362945E-01
5.536741749771170E-01
5.255480666128802E-01
4.954414055210506E-01
3.618300856415561E-01
4.273723203657707E-01
4.860037861462723E-01
5.379872665845999E-01
5.837743988061085E-01
6.239045658713066E-01
6.589427522235385E-01
6.894426424567799E-01
7.159258393980560E-01
7.388713695338938E-01
7.587114909493827E-01
7.758313537728100E-01
7.905708698746186E-01
8.032277637946774E-01
8.140611252132082E-01
8.232951413854910E-01
8.311227153484549E-01
8.377088637667311E-01
8.431938902219805E-01
8.476962830257435E-01
8.513154186612021E-01
8.541341557448294E-01
8.562214408581887E-01
8.576351351627237E-01
8.584253595432559E-01
8.586387602315736E-01
8.583243455274681E-01
8.575418535145709E-01
8.563740180106095E-01
8.549448838887258E-01
8.539527857119590E-01
8.529006745006650E-01
8.512809871307990E-01
8.490884611808363E-01
8.463147567213953E-01
8.429484757148014E-01
8.389751549306295E-01
8.343772472324881E-01
8.291340849035542E-01
8.232218280557587E-01
8.166134014838889E-01
8.092784145359690E-01
8.011830706822276E-01
7.922900612352349E-01
7.825584556891526E-01
7.719435741639153E-01
7.603968584284343E-01
7.478657306885093E-01
7.342934476992690E-01
7.196189503181406E-01
7.037767097720145E-01
6.866965782949231E-01
6.683036392008034E-01
6.485180647069402E-01
6.272549865272232E-01
6.044243797485742E-01
5.799309715327409E-01
5.536741748672565E-01
5.255480665510297E-01
4.954414052678395E-01
3.618300857154260E-01
4.273723201189523E-01
4.860037865827669E-01
5.379872660787569E-01
5.837743992073519E-01
6.239045656143043E-01
6.589427524289445E-01
6.894426422618136E-01
7.159258395260694E-01
7.388713694978383E-01
7.587114909393573E-01
7.758313537833820E-01
7.905708698776421E-01
8.032277638095734E-01
8.140611251100037E-01
8.232951415789213E-01
8.311227151872115E-01
8.377088638019881E-01
8.431938902361538E-01
8.476962831065484E-01
8.513154184483154E-01
8.541341560071288E-01
8.562214406611680E-01
8.576351352081980E-01
8.584253596605596E-01
8.586387600464087E-01
8.583243456281918E-01
8.575418535927519E-01
8.563740177996442E-01
8.549448840622200E-01
8.539527858703694E-01
8.529006743571752E-01
8.512809877024617E-01
8.490884611670632E-01
8.463147572210513E-01
8.429484756979233E-01
8.389751552034166E-01
8.343772476632565E-01
8.291340847335932E-01
8.232218280162699E-01
8.166134012970490E-01
8.092784148077429E-01
8.011830704189713E-01
7.922900613815880E-01
7.825584553002954E-01
7.719435737298136E-01
7.603968579686839E-01
7.478657303013551E-01
7.342934478265422E-01
7.196189501834699E-01
7.037767102608302E-01
6.866965788945134E-01
6.683036393850107E-01
6.485180647426181E-01
6.272549864085373E-01
6.044243798188343E-01
5.799309711431919E-01
5.536741749560968E-01
5.255480666198195E-01
4.954414051950306E-01
3.618300856423018E-01
4.273723203503378E-01
4.860037861962922E-01
5.379872665101304E-01
5.837743988567158E-01
6.239045658784375E-01
6.589427521959006E-01
6.894426424250527E-01
7.159258395211443E-01
7.388713693759535E-01
7.587114910442203E-01
7.758313538086103E-01
7.905708697065204E-01
8.032277640451360E-01
8.140611249473645E-01
8.232951415981653E-01
8.311227152489092E-01
8.377088637409824E-01
8.431938903091308E-01
8.476962829744340E-01
8.513154186256888E-01
8.541341558348059E-01
8.562214407994364E-01
8.576351351200794E-01
8.584253596857830E-01
8.586387600577369E-01
8.583243456524602E-01
8.575418534787118E-01
8.563740179735593E-01
8.549448839553120E-01
8.539527855488024E-01
8.529006746034631E-01
8.512809875582315E-01
8.490884612152636E-01
8.463147566252369E-01
8.429484761541085E-01
8.389751552194444E-01
8.343772474449457E-01
8.291340851758674E-01
8.232218280851274E-01
8.166134016590367E-01
8.092784143718541E-01
8.011830701571798E-01
7.922900610065785E-01
7.825584551378492E-01
7.719435735624270E-01
7.603968580889930E-01
7.478657308634022E-01
7.342934479801666E-01
7.196189508201156E-01
7.037767102741078E-01
6.866965787818192E-01
6.683036391455603E-01
6.485180645253557E-01
6.272549860814333E-01
6.044243796966398E-01
5.799309712543244E-01
5.536741747887384E-01
5.255480665485512E-01
4.954414057009419E-01
3.618300856716316E-01
4.273723202367717E-01
4.860037864140294E-01
5.379872662521881E-01
5.837743990708615E-01
6.239045657242819E-01
6.589427522890263E-01
6.894426424554266E-01
7.159258393341850E-01
7.388713696140742E-01
7.587114909101745E-01
7.758313537717885E-01
7.905708698914969E-01
8.032277637831250E-01
8.140611251804345E-01
8.232951414843591E-01
8.311227152141839E-01
8.377088639183984E-01
8.431938900154949E-01
8.476962832931529E-01
8.513154184204736E-01
8.541341558696792E-01
8.562214408328471E-01
8.576351351794456E-01
8.584253594657635E-01
8.586387603821221E-01
8.583243453297338E-01
8.575418537142273E-01
8.563740178566658E-01
8.549448839540473E-01
8.539527859051953E-01
8.529006742274562E-01
8.512809872351063E-01
8.490884611113562E-01
8.463147570885241E-01
8.429484753932520E-01
8.389751549111134E-01
8.343772475709396E-01
8.291340846902534E-01
8.232218279440269E-01
8.166134012966124E-01
8.092784149514474E-01
8.011830706879486E-01
7.922900613658487E-01
7.825584556763957E-01
7.719435740193819E-01
7.603968582223640E-01
7.478657305121544E-01
7.342934478553509E-01
7.196189500560750E-01
7.037767099032738E-01
6.866965786493157E-01
6.683036392668840E-01
6.485180646270761E-01
6.272549865931105E-01
6.044243796398295E-01
5.799309713104287E-01
5.536741751044673E-01
5.255480664968326E-01
4.954414052389604E-01
3.618300856799969E-01
4.273723202512742E-01
4.860037863335218E-01
5.379872663684448E-01
5.837743989916030E-01
6.239045657141143E-01
6.589427524268594E-01
6.894426421733658E-01
7.159258396776644E-01
7.388713693695916E-01
7.587114909861039E-01
7.758313537865467E-01
7.905708698702684E-01
8.032277638143641E-01
8.140611251125098E-01
8.232951415523359E-01
8.311227152563716E-01
8.377088636506616E-01
8.431938905083837E-01
8.476962827643619E-01
8.513154187133332E-01
8.541341559166307E-01
8.562214406454789E-01
8.576351351720430E-01
8.584253598404059E-01
8.586387597461181E-01
8.583243459638424E-01
8.575418533117144E-01
8.563740179711694E-01
8.549448839993355E-01
8.539527857460997E-01
8.529006745199024E-01
8.512809875700865E-01
8.490884613751178E-01
8.463147567890410E-01
8.429484760037581E-01
8.389751551707861E-01
8.343772473901757E-01
8.291340850150335E-01
8.232218280385315E-01
8.166134014187502E-01
8.092784145968690E-01
8.011830702989279E-01
7.922900612908449E-01
7.825584554059888E-01
7.719435738276438E-01
7.603968580175592E-01
7.478657305163672E-01
7.342934476792062E-01
7.196189504681429E-01
7.037767101889467E-01
6.866965785331369E-01
6.683036392658727E-01
6.485180647497133E-01
6.272549864026935E-01
6.044243799075266E-01
5.799309713136981E-01
5.536741748498916E-01
5.255480666015271E-01
4.954414052600895E-01
3.618300856827162E-01
4.273723202133399E-01
4.860037864354237E-01
5.379872662465304E-01
5.837743990353913E-01
6.239045658419522E-01
6.589427520801752E-01
6.894426426758912E-01
7.159258392248931E-01
7.388713695804722E-01
7.587114909729334E-01
7.758313538333458E-01
7.905708696552523E-01
8.032277641036912E-01
8.140611249230569E-01
8.232951415980808E-01
8.311227152019109E-01
8.377088639352368E-01
8.431938899258902E-01
8.476962834382524E-01
8.513154182932539E-01
8.541341559225878E-01
8.562214408386755E-01
8.576351351830392E-01
8.584253594001094E-01
8.586387605102583E-01
8.583243451788112E-01
8.575418538336168E-01
8.563740178032059E-01
8.549448839789823E-01
8.539527856356061E-01
8.529006745919087E-01
8.512809875676299E-01
8.490884611047010E-01
8.463147570017590E-01
8.429484758005004E-01
8.389751552928201E-01
8.343772477051479E-01
8.291340847644648E-01
8.232218280866175E-01
8.166134015866798E-01
8.092784144823220E-01
8.011830703938149E-01
7.922900609524176E-01
7.825584552334108E-01
7.719435736080090E-01
7.603968579745989E-01
7.478657307306733E-01
7.342934480136489E-01
7.196189504159288E-01
7.037767103110029E-01
6.866965789793188E-01
6.683036394275483E-01
6.485180645508712E-01
6.272549861489031E-01
6.044243796294080E-01
5.799309712288077E-01
5.536741748063037E-01
5.255480664326182E-01
4.954414056674314E-01
3.618300856281270E-01
4.273723203730459E-01
4.860037861932784E-01
5.379872664789513E-01
5.837743989442080E-01
6.239045656768929E-01
6.589427525452246E-01
6.894426420227954E-01
7.159258397933280E-01
7.388713693048675E-01
7.587114910546527E-01
7.758313536521984E-01
7.905708700759339E-01
8.032277635838821E-01
8.140611253134504E-01
8.232951414129568E-01
8.311227153289057E-01
8.377088636265488E-01
8.431938905238507E-01
8.476962827120061E-01
8.513154188253295E-01
8.541341557594663E-01
8.562214408039136E-01
8.576351350680915E-01
8.584253598562607E-01
8.586387597899983E-01
8.583243459378146E-01
8.575418532681361E-01
8.563740180586006E-01
8.549448839295282E-01
8.539527858906606E-01
8.529006741601740E-01
8.512809872675901E-01
8.490884611623440E-01
8.463147568875081E-01
8.429484756781236E-01
8.389751548721534E-01
8.343772473282277E-01
8.291340850789769E-01
8.232218279891762E-01
8.166134012505684E-01
8.092784149021797E-01
8.011830704701410E-01
7.922900614115316E-01
7.825584555347662E-01
7.719435738959752E-01
7.603968583074451E-01
7.478657306458443E-01
7.342934478960779E-01
7.196189503349800E-01
7.037767100791877E-01
6.866965784966018E-01
6.683036388883334E-01
6.485180646967584E-01
6.272549864762826E-01
6.044243796983326E-01
5.799309712637544E-01
5.536741750660608E-01
5.255480667532787E-01
4.954414051718128E-01
3.618300857272304E-01
4.273723201159754E-01
4.860037865311275E-01
5.379872661889095E-01
5.837743990571976E-01
6.239045658367343E-01
6.589427520694910E-01
6.894426427284455E-01
7.159258391007319E-01
7.388713697817596E-01
7.587114907287980E-01
7.758313540546643E-01
7.905708695088548E-01
8.032277641908420E-01
8.140611248190550E-01
8.232951417696213E-01
8.311227150061651E-01
8.377088640603848E-01
8.431938899108316E-01
8.476962834038436E-01
8.513154182723458E-01
8.541341560577761E-01
8.562214406283079E-01
8.576351353551391E-01
8.584253593578067E-01
8.586387604421883E-01
8.583243452458256E-01
8.575418538583490E-01
8.563740176968223E-01
8.549448840840280E-01
8.539527856375310E-01
8.529006745845634E-01
8.512809877105725E-01
8.490884611670447E-01
8.463147568202248E-01
8.429484758949423E-01
8.389751551649137E-01
8.343772475505994E-01
8.291340848532288E-01
8.232218279403625E-01
8.166134016233328E-01
8.092784145265800E-01
8.011830704346566E-01
7.922900614029353E-01
7.825584552561816E-01
7.719435739602153E-01
7.603968579984411E-01
7.478657303956781E-01
7.342934476600464E-01
7.196189504355922E-01
7.037767099536276E-01
6.866965787056233E-01
6.683036394954229E-01
6.485180646747915E-01
6.272549864226203E-01
6.044243797883161E-01
5.799309713717228E-01
5.536741749046888E-01
5.255480663931098E-01
4.954414054209152E-01
3.618300856261830E-01
4.273723203619413E-01
4.860037862419416E-01
5.379872663981459E-01
5.837743990082017E-01
6.239045656857426E-01
6.589427524645525E-01
6.894426420912889E-01
7.159258398461827E-01
7.388713690943218E-01
7.587114913444309E-01
7.758313534206556E-01
7.905708701630408E-01
8.032277635966045E-01
8.140611253429613E-01
8.232951412430650E-01
8.311227155857498E-01
8.377088634335160E-01
8.431938905555482E-01
8.476962828054473E-01
8.513154187309256E-01
8.541341557493222E-01
8.562214409238716E-01
8.576351349251726E-01
8.584253599370337E-01
8.586387597749227E-01
8.583243459466262E-01
8.575418532201617E-01
8.563740181382856E-01
8.549448838661451E-01
8.539527857329627E-01
8.529006745226426E-01
8.512809874490247E-01
8.490884612223816E-01
8.463147570652512E-01
8.429484759389995E-01
8.389751552575462E-01
8.343772474823056E-01
8.291340848121889E-01
8.232218282264713E-01
8.166134013000007E-01
8.092784145750597E-01
8.011830703049472E-01
7.922900609384501E-01
7.825584554716598E-01
7.719435734516022E-01
7.603968582934696E-01
7.478657306037664E-01
7.342934479675721E-01
7.196189503311607E-01
7.037767103826418E-01
6.866965788793440E-01
6.683036392478400E-01
6.485180647236705E-01
6.272549861817284E-01
6.044243798157390E-01
5.799309711604979E-01
5.536741747792875E-01
5.255480665426304E-01
4.954414054706784E-01
3.618300856982806E-01
4.273723201957600E-01
4.860037864126981E-01
5.379872663146134E-01
5.837743989756943E-01
6.239045658227557E-01
6.589427521852121E-01
6.894426425815946E-01
7.159258391715567E-01
7.388713698374223E-01
7.587114905976070E-01
7.758313541586803E-01
7.905708694983585E-01
8.032277641333796E-01
8.140611248484350E-01
8.232951418402804E-01
8.311227148640169E-01
8.377088641749395E-01
8.431938899005696E-01
8.476962833099788E-01
8.513154184053353E-01
8.541341559613131E-01
8.562214406591434E-01
8.576351353688860E-01
8.584253593221766E-01
8.586387604971291E-01
8.583243451838588E-01
8.575418538946837E-01
8.563740177011112E-01
8.549448840622442E-01
8.539527857357587E-01
8.529006743863478E-01
8.512809873971264E-01
8.490884611214957E-01
8.463147567580040E-01
8.429484755488763E-01
8.389751550102256E-01
8.343772474663499E-01
8.291340850414995E-01
8.232218279561159E-01
8.166134014358150E-01
8.092784147214558E-01
8.011830706895476E-01
7.922900613984145E-01
7.825584552238852E-01
7.719435740792661E-01
7.603968578469642E-01
7.478657308316800E-01
7.342934478694790E-01
7.196189505430880E-01
7.037767101058890E-01
6.866965785189848E-01
6.683036390554891E-01
6.485180645138975E-01
6.272549864991761E-01
6.044243795043061E-01
5.799309713203511E-01
5.536741751274215E-01
5.255480666824128E-01
4.954414052562031E-01
3.618300856502427E-01
4.273723203137482E-01
4.860037862764421E-01
5.379872663981018E-01
5.837743989817671E-01
6.239045657291346E-01
6.589427523938860E-01
6.894426421983060E-01
7.159258397166401E-01
7.388713692251159E-01
7.587114912253465E-01
7.758313535175907E-01
7.905708700927010E-01
8.032277636533248E-01
8.140611252785430E-01
8.232951413251564E-01
8.311227154963736E-01
8.377088635064454E-01
8.431938905106129E-01
8.476962828422869E-01
8.513154186693572E-01
8.541341558531724E-01
8.562214407805019E-01
8.576351350790185E-01
8.584253598299056E-01
8.586387597995478E-01
8.583243459627616E-01
8.575418532478706E-01
8.563740180380098E-01
8.549448839780183E-01
8.539527857478014E-01
8.529006743239437E-01
8.512809875095847E-01
8.490884611874904E-01
8.463147569732392E-01
8.429484759528092E-01
8.389751550897350E-01
8.343772474614167E-01
8.291340848479360E-01
8.232218280572119E-01
8.166134014835317E-01
8.092784146783821E-01
8.011830702327646E-01
7.922900612495107E-01
7.825584555308582E-01
7.719435738319835E-01
7.603968583597239E-01
7.478657303931767E-01
7.342934477213787E-01
7.196189502285215E-01
7.037767099846697E-01
6.866965786534632E-01
6.683036393986546E-01
6.485180647921583E-01
6.272549862284102E-01
6.044243800195865E-01
5.799309713085109E-01
5.536741746999797E-01
5.255480665722920E-01
4.954414054555378E-01
3.618300856914715E-01
4.273723201791862E-01
4.860037865114039E-01
5.379872661319385E-01
5.837743991601866E-01
6.239045657291598E-01