# vtk DataFile Version 2.0
A mesh
ASCII
DATASET UNSTRUCTURED_GRID
POINTS 861 double
0.000000000000000E+00 0.000000000000000E+00 0.000000000000000E+00
5.000000000000000E-02 0.000000000000000E+00 0.000000000000000E+00
1.000000000000000E-01 0.000000000000000E+00 0.000000000000000E+00
1.500000000000000E-01 0.000000000000000E+00 0.000000000000000E+00
2.000000000000000E-01 0.000000000000000E+00 0.000000000000000E+00
2.500000000000000E-01 0.000000000000000E+00 0.000000000000000E+00
3.000000000000000E-01 0.000000000000000E+00 0.000000000000000E+00
3.500000000000000E-01 0.000000000000000E+00 0.000000000000000E+00
4.000000000000000E-01 0.000000000000000E+00 0.000000000000000E+00
4.500000000000001E-01 0.000000000000000E+00 0.000000000000000E+00
5.000000000000000E-01 0.000000000000000E+00 0.000000000000000E+00
5.500000000000000E-01 0.000000000000000E+00 0.000000000000000E+00
6.000000000000001E-01 0.000000000000000E+00 0.000000000000000E+00
6.500000000000000E-01 0.000000000000000E+00 0.000000000000000E+00
7.000000000000001E-01 0.000000000000000E+00 0.000000000000000E+00
7.500000000000001E-01 0.000000000000000E+00 0.000000000000000E+00
8.000000000000000E-01 0.000000000000000E+00 0.000000000000000E+00
8.500000000000001E-01 0.000000000000000E+00 0.000000000000000E+00
9.000000000000000E-01 0.000000000000000E+00 0.000000000000000E+00
9.500000000000001E-01 0.000000000000000E+00 0.000000000000000E+00
1.000000000000000E+00 0.000000000000000E+00 0.000000000000000E+00
1.050000000000000E+00 0.000000000000000E+00 0.000000000000000E+00
1.100000000000000E+00 0.000000000000000E+00 0.000000000000000E+00
1.150000000000000E+00 0.000000000000000E+00 0.000000000000000E+00
1.200000000000000E+00 0.000000000000000E+00 0.000000000000000E+00
1.250000000000000E+00 0.000000000000000E+00 0.000000000000000E+00
1.300000000000000E+00 0.000000000000000E+00 0.000000000000000E+00
1.350000000000000E+00 0.000000000000000E+00 0.000000000000000E+00
1.400000000000000E+00 0.000000000000000E+00 0.000000000000000E+00
1.450000000000000E+00 0.000000000000000E+00 0.000000000000000E+00
1.500000000000000E+00 0.000000000000000E+00 0.000000000000000E+00
1.550000000000000E+00 0.000000000000000E+00 0.000000000000000E+00
1.600000000000000E+00 0.000000000000000E+00 0.000000000000000E+00
1.650000000000000E+00 0.000000000000000E+00 0.000000000000000E+00
1.700000000000000E+00 0.000000000000000E+00 0.000000000000000E+00
1.750000000000000E+00 0.000000000000000E+00 0.000000000000000E+00
1.800000000000000E+00 0.000000000000000E+00 0.000000000000000E+00
1.850000000000000E+00 0.000000000000000E+00 0.000000000000000E+00
1.900000000000000E+00 0.000000000000000E+00 0.000000000000000E+00
1.950000000000000E+00 0.000000000000000E+00 0.000000000000000E+00
2.000000000000000E+00 0.000000000000000E+00 0.000000000000000E+00
0.000000000000000E+00 5.000000000000000E-02 0.000000000000000E+00
5.000000000000000E-02 5.000000000000000E-02 0.000000000000000E+00
1.000000000000000E-01 5.000000000000000E-02 0.000000000000000E+00
1.500000000000000E-01 5.000000000000000E-02 0.000000000000000E+00
2.000000000000000E-01 5.000000000000000E-02 0.000000000000000E+00
2.500000000000000E-01 5.000000000000000E-02 0.000000000000000E+00
3.000000000000000E-01 5.000000000000000E-02 0.000000000000000E+00
3.500000000000000E-01 5.000000000000000E-02 0.000000000000000E+00
4.000000000000000E-01 5.000000000000000E-02 0.000000000000000E+00
4.500000000000001E-01 5.000000000000000E-02 0.000000000000000E+00
5.000000000000000E-01 5.000000000000000E-02 0.000000000000000E+00
5.500000000000000E-01 5.000000000000000E-02 0.000000000000000E+00
6.000000000000001E-01 5.000000000000000E-02 0.000000000000000E+00
6.500000000000000E-01 5.000000000000000E-02 0.000000000000000E+00
7.000000000000001E-01 5.000000000000000E-02 0.000000000000000E+00
7.500000000000001E-01 5.000000000000000E-02 0.000000000000000E+00
8.000000000000000E-01 5.000000000000000E-02 0.000000000000000E+00
8.500000000000001E-01 5.000000000000000E-02 0.000000000000000E+00
9.000000000000000E-01 5.000000000000000E-02 0.000000000000000E+00
9.500000000000001E-01 5.000000000000000E-02 0.000000000000000E+00
1.000000000000000E+00 5.000000000000000E-02 0.000000000000000E+00
1.050000000000000E+00 5.000000000000000E-02 0.000000000000000E+00
1.100000000000000E+00 5.000000000000000E-02 0.000000000000000E+00
1.150000000000000E+00 5.000000000000000E-02 0.000000000000000E+00
1.200000000000000E+00 5.000000000000000E-02 0.000000000000000E+00
1.250000000000000E+00 5.000000000000000E-02 0.000000000000000E+00
1.300000000000000E+00 5.000000000000000E-02 0.000000000000000E+00
1.350000000000000E+00 5.000000000000000E-02 0.000000000000000E+00
1.400000000000000E+00 5.000000000000000E-02 0.000000000000000E+00
1.450000000000000E+00 5.000000000000000E-02 0.000000000000000E+00
1.500000000000000E+00 5.000000000000000E-02 0.000000000000000E+00
1.550000000000000E+00 5.000000000000000E-02 0.000000000000000E+00
1.600000000000000E+00 5.000000000000000E-02 0.000000000000000E+00
1.650000000000000E+00 5.000000000000000E-02 0.000000000000000E+00
1.700000000000000E+00 5.000000000000000E-02 0.000000000000000E+00
1.750000000000000E+00 5.000000000000000E-02 0.000000000000000E+00
1.800000000000000E+00 5.000000000000000E-02 0.000000000000000E+00
1.850000000000000E+00 5.000000000000000E-02 0.000000000000000E+00
1.900000000000000E+00 5.000000000000000E-02 0.000000000000000E+00
1.950000000000000E+00 5.000000000000000E-02 0.000000000000000E+00
2.000000000000000E+00 5.000000000000000E-02 0.000000000000000E+00
0.000000000000000E+00 1.000000000000000E-01 0.000000000000000E+00
5.000000000000000E-02 1.000000000000000E-01 0.000000000000000E+00
1.000000000000000E-01 1.000000000000000E-01 0.000000000000000E+00
1.500000000000000E-01 1.000000000000000E-01 0.000000000000000E+00
2.000000000000000E-01 1.000000000000000E-01 0.000000000000000E+00
2.500000000000000E-01 1.000000000000000E-01 0.000000000000000E+00
3.000000000000000E-01 1.000000000000000E-01 0.000000000000000E+00
3.500000000000000E-01 1.000000000000000E-01 0.000000000000000E+00
4.000000000000000E-01 1.000000000000000E-01 0.000000000000000E+00
4.500000000000001E-01 1.000000000000000E-01 0.000000000000000E+00
5.000000000000000E-01 1.000000000000000E-01 0.000000000000000E+00
5.500000000000000E-01 1.000000000000000E-01 0.000000000000000E+00
6.000000000000001E-01 1.000000000000000E-01 0.000000000000000E+00
6.500000000000000E-01 1.000000000000000E-01 0.000000000000000E+00
7.000000000000001E-01 1.000000000000000E-01 0.000000000000000E+00
7.500000000000001E-01 1.000000000000000E-01 0.000000000000000E+00
8.000000000000000E-01 1.000000000000000E-01 0.000000000000000E+00
8.500000000000001E-01 1.000000000000000E-01 0.000000000000000E+00
9.000000000000000E-01 1.000000000000000E-01 0.000000000000000E+00
9.500000000000001E-01 1.000000000000000E-01 0.000000000000000E+00
1.000000000000000E+00 1.000000000000000E-01 0.000000000000000E+00
1.050000000000000E+00 1.000000000000000E-01 0.000000000000000E+00
1.100000000000000E+00 1.000000000000000E-01 0.000000000000000E+00
1.150000000000000E+00 1.000000000000000E-01 0.000000000000000E+00
1.200000000000000E+00 1.000000000000000E-01 0.000000000000000E+00
1.250000000000000E+00 1.000000000000000E-01 0.000000000000000E+00
1.300000000000000E+00 1.000000000000000E-01 0.000000000000000E+00
1.350000000000000E+00 1.000000000000000E-01 0.000000000000000E+00
1.400000000000000E+00 1.000000000000000E-01 0.000000000000000E+00
1.450000000000000E+00 1.000000000000000E-01 0.000000000000000E+00
1.500000000000000E+00 1.000000000000000E-01 0.000000000000000E+00
1.550000000000000E+00 1.000000000000000E-01 0.000000000000000E+00
1.600000000000000E+00 1.000000000000000E-01 0.000000000000000E+00
1.650000000000000E+00 1.000000000000000E-01 0.000000000000000E+00
1.700000000000000E+00 1.000000000000000E-01 0.000000000000000E+00
1.750000000000000E+00 1.000000000000000E-01 0.000000000000000E+00
1.800000000000000E+00 1.000000000000000E-01 0.000000000000000E+00
1.850000000000000E+00 1.000000000000000E-01 0.000000000000000E+00
1.900000000000000E+00 1.000000000000000E-01 0.000000000000000E+00
1.950000000000000E+00 1.000000000000000E-01 0.000000000000000E+00
2.000000000000000E+00 1.000000000000000E-01 0.000000000000000E+00
0.000000000000000E+00 1.500000000000000E-01 0.000000000000000E+00
5.000000000000000E-02 1.500000000000000E-01 0.000000000000000E+00
1.000000000000000E-01 1.500000000000000E-01 0.000000000000000E+00
1.500000000000000E-01 1.500000000000000E-01 0.000000000000000E+00
2.000000000000000E-01 1.500000000000000E-01 0.000000000000000E+00
2.500000000000000E-01 1.500000000000000E-01 0.000000000000000E+00
3.000000000000000E-01 1.500000000000000E-01 0.000000000000000E+00
3.500000000000000E-01 1.500000000000000E-01 0.000000000000000E+00
4.000000000000000E-01 1.500000000000000E-01 0.000000000000000E+00
4.500000000000001E-01 1.500000000000000E-01 0.000000000000000E+00
5.000000000000000E-01 1.500000000000000E-01 0.000000000000000E+00
5.500000000000000E-01 1.500000000000000E-01 0.000000000000000E+00
6.000000000000001E-01 1.500000000000000E-01 0.000000000000000E+00
6.500000000000000E-01 1.500000000000000E-01 0.000000000000000E+00
7.000000000000001E-01 1.500000000000000E-01 0.000000000000000E+00
7.500000000000001E-01 1.500000000000000E-01 0.000000000000000E+00
8.000000000000000E-01 1.500000000000000E-01 0.000000000000000E+00
8.500000000000001E-01 1.500000000000000E-01 0.000000000000000E+00
9.000000000000000E-01 1.500000000000000E-01 0.000000000000000E+00
9.500000000000001E-01 1.500000000000000E-01 0.000000000000000E+00
1.000000000000000E+00 1.500000000000000E-01 0.000000000000000E+00
1.050000000000000E+00 1.500000000000000E-01 0.000000000000000E+00
1.100000000000000E+00 1.500000000000000E-01 0.000000000000000E+00
1.150000000000000E+00 1.500000000000000E-01 0.000000000000000E+00
1.200000000000000E+00 1.500000000000000E-01 0.000000000000000E+00
1.250000000000000E+00 1.500000000000000E-01 0.000000000000000E+00
1.300000000000000E+00 1.500000000000000E-01 0.000000000000000E+00
[...]
CELL_DATA 800
SCALARS FLUX_1 double 1
LOOKUP_TABLE default
9.594762267781746E-03
6.198797217573116E-03
4.272202282533865E-03
2.975115746728472E-03
2.077280255053585E-03
1.453406087827826E-03
1.019671452015971E-03
7.181057842907358E-04
5.084321440980676E-04
3.626493315320496E-04
2.612887980180912E-04
1.908143773977815E-04
1.418145562574528E-04
1.077455553701355E-04
8.405722848044418E-05
6.758464113875391E-05
5.612264799980067E-05
4.812177645898596E-05
4.245058531667459E-05
3.504461731292944E-05
1.893180417740074E-05
1.227781606215857E-05
8.535326026542168E-06
5.998738218939921E-06
4.221379309437197E-06
2.969807376043739E-06
2.087847104023463E-06
1.466281077698061E-06
1.028222772395004E-06
7.194937978394370E-07
5.019118438761839E-07
3.485673236404336E-07
2.404952041195347E-07
1.643294228665414E-07
1.106495320502968E-07
7.281438811707103E-08
4.613590880660416E-08
2.728025668629598E-08
1.378646782739974E-08
4.414083727894906E-09
5.905856101821571E-09
4.254227146830007E-09
3.299370688762347E-09
2.585725736368251E-09
2.035284483959409E-09
1.609320407906558E-09
1.279566693115137E-09
1.024282442004949E-09
8.266489897181358E-10
6.736469733917976E-10
5.551972951139220E-10
4.634970236066326E-10
3.925053588262444E-10
3.375456876028062E-10
2.949974894625884E-10
2.620576674836102E-10
2.365545143987080E-10
2.167931821625902E-10
2.013492838184510E-10
1.743828642747398E-10
9.842077620412108E-11
7.054708387830294E-11
5.429623715113538E-11
4.210851084477852E-11
3.265680489758191E-11
2.529900265489297E-11
1.956868433287924E-11
1.510562127395416E-11
1.162953674364233E-11
8.922164094693968E-12
6.813507783000236E-12
5.171165890516227E-12
3.892016275792424E-12
2.895741495149366E-12
2.119785406624484E-12
1.515422760278451E-12
1.044677292582202E-12
6.777377846833387E-13
3.893265972861090E-13
1.743065285232712E-13
2.613110236095440E-13
1.884496896601836E-13
1.462767207266257E-13
1.146561641895502E-13
9.024920780954541E-14
7.135929672802796E-14
5.673566950861945E-14
4.541451561163029E-14
3.665001227966797E-14
2.986479071390295E-14
2.461187093095258E-14
2.054521428913458E-14
1.739692780755873E-14
1.495961646285066E-14
1.307272005834317E-14
1.161192889975038E-14
1.048093369988433E-14
9.604572575924372E-15
8.919677855797335E-15
7.753153842269646E-15
4.336515328944640E-15
3.116987837246457E-15
2.402110416553987E-15
1.863434633183053E-15
1.445251121997834E-15
1.119651365640626E-15
8.660640842495234E-16
6.685565314977669E-16
5.147264364510014E-16
3.949147834421926E-16
3.015986298228742E-16
2.289186829736624E-16
1.723113916028194E-16
1.282223998644401E-16
9.388335782380485E-17
6.713798572403017E-17
4.630568780829919E-17
3.006720295785470E-17
1.730389839011793E-17
7.673569577212503E-18
1.183608798204018E-17
8.538788649541083E-18
6.628906341865582E-18
5.196085708579680E-18
4.089994008363172E-18
3.233908506548700E-18
2.571167414839911E-18
2.058093749271933E-18
1.660887222489493E-18
1.353381569106592E-18
1.115319699328939E-18
9.310191723578525E-19
7.883391015437848E-19
6.778803623865355E-19
5.923663806726539E-19
5.261634518179968E-19
4.749068472641873E-19
4.351902369881508E-19
4.041508675596144E-19
3.514610804851147E-19
1.962912871986365E-19
1.411732762794007E-19
1.088210666185556E-19
8.442208438102486E-20
6.547711727197415E-20
5.072596388532991E-20
3.923723820330494E-20
3.028918633612155E-20
2.331993457397051E-20
1.789188363919782E-20
1.366420775194978E-20
1.037145245717162E-20
7.806866674202585E-21
5.809420785862973E-21
4.253695067736150E-21
3.041999553130319E-21
2.098195075508677E-21
1.362512685902115E-21
7.842728753441796E-22
3.465107916713762E-22
5.374037801954705E-22
3.877151932072622E-22
3.010010025912062E-22
2.359414193630991E-22
1.857165558870054E-22
1.468437145343124E-22
1.167501731934971E-22
9.345268160230005E-23
7.541644924047233E-23
6.145332664551775E-23
5.064348611938835E-23
4.227482419384240E-23
3.579605120394522E-23
3.078037458094032E-23
2.689738186986246E-23
2.389125953708709E-23
2.156381532401124E-23
1.976037563941591E-23
1.835094945165253E-23
1.595929867375084E-23
8.911563717013285E-24
6.409796673660217E-24
4.941059030649688E-24
3.833244692720375E-24
2.973039664217134E-24
2.303252911555911E-24
1.781598526625802E-24
1.375305315333801E-24
1.058861044149979E-24
8.123961886051316E-25
6.204352914092118E-25
4.709251876203123E-25
3.544781843461005E-25
2.637826071325745E-25
1.931436762783498E-25
1.381257032029434E-25
9.527153009401062E-26
6.186730154358014E-26
3.561187520509623E-26
1.572131078692628E-26
2.440613522180962E-26
1.760817476662619E-26
1.367006917726220E-26
1.071537093177432E-26
8.434389556287929E-27
6.668963718075009E-27
5.302253224408767E-27
4.244188095100850E-27
3.425065208105627E-27
2.790924270781913E-27
2.299990931384988E-27
1.919924718983757E-27
1.625688587426783E-27
1.397899577224496E-27
1.221551871269475E-27
1.085027593051619E-27
9.793257598899787E-28
8.974218072249854E-28
8.334121390595226E-28
7.247983021382128E-28
4.047129670142335E-28
2.911003080615746E-28
2.243988087398639E-28
1.740874802005471E-28
1.350211495298004E-28
1.046026651225968E-28
8.091163477035680E-29
6.245975294528181E-29
4.808837739620911E-29
3.689513004182817E-29
2.817719011415279E-29
2.138716088177241E-29
1.609869852224257E-29
1.197974197734743E-29
8.771661765437963E-30
6.273010262815108E-30
4.326780003013705E-30
2.809720736815465E-30
1.617325655616409E-30
7.138759051323578E-31
1.108429580081713E-30
7.996939915183707E-31
6.208409584519287E-31
4.866501828360806E-31
3.830569437775676E-31
3.028782121896386E-31
2.408075701541479E-31
1.927543925829268E-31
1.555530365736179E-31
1.267528368167191E-31
1.044565657357801E-31
8.719544570097853E-32
7.383239205489417E-32
6.348710662983644E-32
5.547808393581476E-32
4.927768548656804E-32
4.447712187273120E-32
4.075736486159479E-32
3.785029622581248E-32
3.291749815464021E-32
1.838042630661442E-32
1.322061880203019E-32
1.019130823148198E-32
7.906367483702870E-33
6.132128863110885E-33
4.750641132663897E-33
3.674687837136108E-33
2.836676030543694E-33
2.183984748950094E-33
1.675631534124145E-33
1.279697034628973E-33
9.713206466300023E-34
7.311395126926191E-34
5.440727272386055E-34
3.983743577172494E-34
2.848954463786979E-34
1.965053324053906E-34
1.276064748482136E-34
7.345258601742767E-35
3.242050596925969E-35
5.034059109502432E-35
3.631901685249115E-35
2.819620309736789E-35
2.210177556304532E-35
1.739696994835026E-35
1.375556097824772E-35
1.093655163980407E-35
8.754161512723497E-36
7.064619297682915E-36
5.756625221360018E-36
4.744014519206204E-36
3.960080971979629E-36
3.353182576890954E-36
2.883339583853103E-36
2.519600640048550E-36
2.238002438962189E-36
2.019979341104451E-36
1.851042313687820E-36
1.719014460160032E-36
1.494985857267304E-36
8.347678358820792E-37
6.004294570489523E-37
4.628499045886778E-37
3.590767180871529E-37
2.784976443168192E-37
2.157557998132744E-37
1.668901507665230E-37
1.288308864511153E-37
9.918816565633082E-38
7.610072318928820E-38
5.811890521067361E-38
4.411363897352222E-38
3.320553816930159E-38
2.470968622871629E-38
1.809262819549099E-38
1.293885369313217E-38
8.924515607907156E-39
5.795395217771681E-39
3.335934440719869E-39
1.472408202317636E-39
2.286278014766853E-39
1.649471979863902E-39
1.280565039216187E-39
1.003779597669222E-39
7.901054348184685E-40
6.247266545695457E-40
4.966981002873553E-40
3.975823403459794E-40
3.208498356849006E-40
2.614457789734409E-40
2.154568982386488E-40
1.798536537428421E-40
1.522906644801050E-40
1.309522040763086E-40
1.144325812125906E-40
1.016434747373681E-40
9.174170476065615E-41
8.406923517868727E-41
7.807303821641932E-41
6.789838093389630E-41
3.791319042985513E-41
2.727036881110144E-41
2.102202797039665E-41
1.630904861111134E-41
1.264945714918964E-41
9.799964027109412E-42
7.580674288552023E-42
5.852168940608751E-42
4.505910591244862E-42
3.457367736067866E-42
2.640702673020920E-42
2.004637257990565E-42
1.509233142120212E-42
1.123384041368798E-42
8.228624723166095E-43
5.887975366940757E-43
4.064813240458654E-43
2.643681712871586E-43
1.526682244448940E-43
6.825957350889053E-44
1.059873543411899E-43
7.693346839551123E-44
6.016471200995906E-44
4.758915218740269E-44
3.787880860040196E-44
3.035943449977788E-44
2.453323179997939E-44
2.001616758424586E-44
1.651061501937720E-44
1.378560744222569E-44
1.166161771537751E-44
9.998736687904441E-45
8.687463743949530E-45
7.641502576926871E-45
6.792087868822022E-45
6.083467569106731E-45
5.469224571784159E-45
4.909030079033870E-45
4.364186181369505E-45
3.516547356622861E-45
1.727451741715920E-45
1.243747048859094E-45
9.599280398500220E-46
7.458670401869689E-46
5.796475709085415E-46
4.502178370903141E-46
3.494073627118200E-46
2.708840085542072E-46
2.097180213047249E-46
1.620697201492475E-46
1.249482017548981E-46
9.602352515150296E-47
7.348041081902745E-47
5.590425463561403E-47
4.219229428714037E-47
3.148431327863479E-47
2.310819720062446E-47
1.653382948369794E-47
1.130325437249057E-47
8.974875882870616E-48
1.923318434701510E-47
2.052090915017579E-47
2.454296261535965E-47
3.026704670746953E-47
3.791071822262209E-47
4.793768890382884E-47
6.097493998364508E-47
7.784013396873046E-47
9.959161982089780E-47
1.275947063888041E-46
1.636073439351210E-46
2.098904801870845E-46
2.693500062600063E-46
3.457192026287114E-46
4.437931397926465E-46
5.697297508155651E-46
7.314364791675019E-46
9.390667767117660E-46
1.205657608351631E-45
1.339657153802755E-45
8.136931627901086E-46
9.591462925471274E-46
1.227265234445407E-45
1.583845266070841E-45
2.045681983668372E-45
2.642389547650228E-45
3.413179059411950E-45
4.408814967339864E-45
5.694883867624007E-45
7.356106003648584E-45
9.501915166025611E-45
1.227366756584022E-44
1.585395372754005E-44
2.047862672581266E-44
2.645233912020643E-44
3.416861208908428E-44
4.413575882658991E-44
5.701036991883090E-44
7.364056656434093E-44
1.358214714501879E-43
3.275351610038858E-43
3.829191412829001E-43
4.871797615083841E-43
6.250012601080448E-43
8.024026570739253E-43
1.030224536117392E-42
1.322738153426678E-42
1.698306563702227E-42
2.180511163518905E-42
2.799629380243924E-42
3.594535446777554E-42
4.615141264665333E-42
5.925530352463175E-42
7.607981629253587E-42
9.768135682068439E-42
1.254162790514969E-41
1.610260500373565E-41
2.067465961096480E-41
2.654486959905632E-41
2.949568067903969E-41
1.791544921188724E-41
2.111838516528290E-41
2.702214218904713E-41
3.487365063023009E-41
4.504273783877951E-41
5.818147210330186E-41
7.515323134059817E-41
9.707578097788512E-41
1.253932486009127E-40
1.619710572962820E-40
2.092187873595249E-40
2.702489056809862E-40
3.490818006539552E-40
4.509106271523834E-40
5.824434081011151E-40
7.523449287120005E-40
9.718075333773902E-40
1.255288426740456E-39
1.621462049004929E-39
2.990598388474143E-39
7.211865133971564E-39
8.431342749071667E-39
1.072701546475031E-38
1.376165167966801E-38
1.766778177723010E-38
2.268410021551339E-38
2.912484005174364E-38
3.739433001089479E-38
4.801179939144679E-38
6.164391470407860E-38
7.914663206713774E-38
1.016189415910069E-37
1.304718725282392E-37
1.675170913464370E-37
2.150806556953289E-37
2.761490668356010E-37
3.545567911146619E-37
4.552270249037808E-37
5.844808205513396E-37
6.494535443724715E-37
3.944730795049867E-37
4.649972396349158E-37
5.949896939850423E-37
7.678689043772176E-37
9.917779506693995E-37
1.281074462570710E-36
1.654768811609682E-36
2.137472625718404E-36
2.760983570097010E-36
3.566375646343151E-36
4.606704435048279E-36
5.950502094383288E-36
7.686291941377498E-36
9.928419967093950E-36
1.282458743368104E-35
1.656558076604717E-35
2.139783969936769E-35
2.763969161517606E-35
3.570232151073685E-35
6.584878447356567E-35
1.587951613565072E-34
1.856463490955177E-34
2.361938444432811E-34
3.030122802368718E-34
3.890197897506347E-34
4.994720903726680E-34
6.412881535616421E-34
8.233707310926659E-34
1.057152524312964E-33
1.357312595319190E-33
1.742697898041032E-33
2.237506654251298E-33
2.872807750247167E-33
3.688491542226778E-33
4.735774559194997E-33
6.080415372724120E-33
7.806843557000810E-33
1.002346099526091E-32
1.286944839997726E-32
1.430005670605228E-32
8.685744276560855E-33
1.023858742869148E-32
1.310083906265837E-32
1.690739695017152E-32
2.183756029552352E-32
2.820746397977552E-32
3.643568973708932E-32
4.706415111633455E-32
6.079298813433234E-32
7.852659273270764E-32
1.014331744279126E-31
1.310217152811320E-31
1.692413746499433E-31
2.186098909784249E-31
2.823794390257671E-31
3.647508684425295E-31
4.711504367619322E-31
6.085872667248640E-31
7.861150756118041E-31
1.449897933243845E-30
3.496446869400877E-30
4.087672386020960E-30
5.200657380998022E-30
6.671905677564574E-30
8.565670480065270E-30
1.099767531843069E-29
1.412026624583704E-29
1.812946937735750E-29
2.327701677140508E-29
2.988612079966128E-29
3.837176496982417E-29
4.926676020660856E-29
6.325519983692426E-29
8.121541358981846E-29
1.042751176436110E-28
1.338822235703305E-28
1.718957522483716E-28
2.207025611993323E-28
2.833672146218287E-28
3.148672042335092E-28
1.912479141351970E-28
2.254393437200632E-28
2.884621126730365E-28
3.722771816920946E-28
4.808324679315114E-28
6.210888183450118E-28
8.022628159915254E-28
1.036286637615261E-27
1.338576384998188E-27
1.729045501005903E-27
2.233416321707781E-27
2.884914516946279E-27
3.726457843632545E-27
4.813483373183400E-27
6.217599435212780E-27
8.031302850682040E-27
1.037407220447067E-26
1.340023855462399E-26
1.730915206503457E-26
3.192472016200330E-26
7.698685908379608E-26
9.000481623713180E-26
1.145111857520105E-25
1.469060109891100E-25
1.886040574441835E-25
2.421533950362722E-25
3.109084703123814E-25
3.991855035560093E-25
5.125272818398045E-25
6.580504885404102E-25
8.448924788136697E-25
1.084785002379079E-24
1.392790835399456E-24
1.788249567350917E-24
2.295991927756802E-24
2.947898899891045E-24
3.784903517700572E-24
4.859561038145385E-24
6.239348869269878E-24
6.932934486886039E-24
4.211010996463122E-24
4.963858349689089E-24
6.351531382823037E-24
8.197021718780730E-24
1.058725695949157E-23
1.367550519783585E-23
1.766470267385815E-23
2.281757919409683E-23
2.947357571099322E-23
3.807115832371318E-23
4.917669681742620E-23
6.352177386953876E-23
8.205137832928145E-23
1.059861568029380E-22
1.369028243349896E-22
1.768380312699247E-22
2.284225285732873E-22
2.950544698169125E-22
3.811232661799724E-22
7.029375889820170E-22
1.695142724306237E-21
1.981779893511806E-21
2.521375799575345E-21
3.234664443369351E-21
4.152796978029136E-21
5.331878331534481E-21
6.845768714912326E-21
8.789505248745955E-21
1.128513233503326E-20
1.448934936625082E-20
1.860334809507122E-20
2.388544520588785E-20
3.066730191626591E-20
3.937474887810701E-20
5.055452395020459E-20
6.490860169657759E-20
8.333827014877680E-20
1.070007223981949E-19
1.373817163866775E-19
1.526534994854758E-19
9.272055955495453E-20
1.092972030045223E-19
1.398518180885410E-19
1.804869284568066E-19
2.331165580571152E-19
3.011154554583304E-19
3.889519922098771E-19
5.024111103825461E-19
6.489668239536605E-19
8.382735418275624E-19
1.082801932791401E-18
1.398660421939961E-18
1.806656339139502E-18
2.333666611676259E-18
3.014408294743349E-18
3.893725574147303E-18
5.029543898617620E-18
6.496685846603718E-18
8.391800099619716E-18
1.547770039956383E-17
3.732466670241354E-17
4.363601538811185E-17
5.551716088637727E-17
7.122277700381885E-17
9.143876846780828E-17
1.174004871500089E-16
1.507342313671472E-16
1.935325853006407E-16
2.484827956124667E-16
3.190351632789348E-16
4.096196486827928E-16
5.259240231310861E-16
6.752510017440438E-16
8.669767785883945E-16
1.113139754950620E-15
1.429196426770493E-15
1.834991893164538E-15
2.356005923964079E-15
3.024952826457044E-15
3.361216083786887E-15
2.041576754704436E-15
2.406571207931427E-15
3.079341003582869E-15
3.974069175531948E-15
5.132899848215840E-15
6.630140254725387E-15
8.564177673248683E-15
1.106238841941331E-14
1.428933980465137E-14
1.845760838042160E-14
2.384178079324195E-14
3.079654198447017E-14
3.978004019206259E-14
5.138406768138981E-14
6.637304534480042E-14
8.573437929552000E-14
1.107435067202912E-13
1.430479159175300E-13
1.847756753814210E-13
3.407972676576924E-13
8.218368426861635E-13
9.608038941082291E-13
1.222410064141570E-12
1.568225716436851E-12
2.013353511656015E-12
2.584994166416543E-12
3.318956490065362E-12
4.261316253095552E-12
5.471242860281879E-12
7.024707102825115E-12
9.019250498864165E-12
1.158010980001350E-11
1.486808055698215E-11
1.908961342047921E-11
2.450977711256860E-11
3.146890200842590E-11
4.040394937365999E-11
5.187594802488432E-11
6.660522115283318E-11
7.400926673798648E-11
4.495265845412793E-11
5.298932470033007E-11
6.780277257706742E-11
8.750343278013482E-11
1.130192598560891E-10
1.459863949209116E-10
1.885711879305516E-10
2.435782868113521E-10
3.146312330865374E-10
4.064106644500182E-10
5.249625939691659E-10
6.780966868896973E-10
8.759007252236056E-10
1.131405145137299E-09
1.461441423189160E-09
1.887750857942207E-09
2.438416788464256E-09
3.149714597796975E-09
4.068501371262103E-09
7.503878137235863E-09
2.686475254802124E-08
3.551065739212873E-08
4.962123665809388E-08
7.020828565779354E-08
9.956893622234438E-08
1.412671463211441E-07
2.004427811794510E-07
2.844101334354378E-07
4.035528813376408E-07
5.726058489105372E-07
8.124767195390567E-07
1.152831633240661E-06
1.635764094599386E-06
2.321000853805901E-06
3.293288571328753E-06
4.672874798759426E-06
6.630379498242579E-06
9.407896318378954E-06
1.334893330207206E-05
1.540651379923087E-05
1.162039328735532E-05
1.544099919269319E-05
2.178404750166652E-05
3.120768786752275E-05
4.485010122780290E-05
6.449649886800404E-05
9.276011521801520E-05
1.334124908874395E-04
1.918817259821757E-04
2.759758515064702E-04
3.969251257112987E-04
5.708816559967563E-04
8.210763913515402E-04
1.180921478255268E-03
1.698472265358977E-03
2.442844828032615E-03
3.513446035985896E-03
5.053248787461371E-03
7.267885243052862E-03
1.901342001917668E-02

SCALARS FLUX_2 double 1
LOOKUP_TABLE default
1.777831189403189E-02
1.248200069870932E-02
8.759077481507884E-03
6.153107631058251E-03
4.329829403795398E-03
3.054230595583626E-03
2.161803488778636E-03
1.537449203278892E-03
1.100642414974120E-03
7.950464437231935E-04
5.812473594678929E-04
4.316706184570927E-04
3.270246431492999E-04
2.538126068410147E-04
2.025912881472717E-04
1.667516015430873E-04
1.416604278695096E-04
1.240419166772446E-04
1.114833821736217E-04
9.389461190983154E-05
5.228993950319415E-05
3.515950170236369E-05
2.532402617878768E-05
1.842917036367324E-05
1.342443529234299E-05
9.773299021642250E-06
7.107773253527955E-06
5.161603677236195E-06
3.740635565546119E-06
2.703134273821756E-06
1.945616404169144E-06
1.392524983091819E-06
9.886929810867419E-07
6.938408477704137E-07
4.785589996843230E-07
3.213746589965478E-07
2.066112211643649E-07
1.228307399047408E-07
6.172770850302304E-08
2.090190579761939E-08
2.723257926429212E-08
2.116610970281640E-08
1.663010091383564E-08
1.311839829963841E-08
1.039283904216747E-08
8.277060558214055E-09
6.634618588792973E-09
5.359618477627361E-09
4.369857258698122E-09
3.601522209454117E-09
3.005076585312314E-09
2.542065841418483E-09
2.182638357487222E-09
1.903620808242742E-09
1.687024021083271E-09
1.518882372724443E-09
1.388346611842473E-09
1.286926348038893E-09
1.207448842745185E-09
1.059262595111275E-09
6.053406231175831E-10
4.408768651096004E-10
3.449300055890064E-10
2.718259566969307E-10
2.141599916825081E-10
1.684984445063141E-10
1.323268263377027E-10
1.036713728330737E-10
8.097014437701611E-11
6.298591713143874E-11
4.873856199765215E-11
3.745160880223742E-11
2.850992724096310E-11
2.142620252487269E-11
1.581437695995398E-11
1.136860885323194E-11
7.846591034428437E-12
5.056202218369334E-12
2.843502756099548E-12
1.261618606102016E-12
1.852209836322578E-12
1.437654168588913E-12
1.129363514953400E-12
8.908206113830754E-13
7.056883105175524E-13
5.619757554196073E-13
4.504142524265676E-13
3.638109353067565E-13
2.965822318641683E-13
2.443937159263570E-13
2.038806455011002E-13
1.724310277728723E-13
1.480172163878754E-13
1.290651825983247E-13
1.143530268931739E-13
1.029321459853030E-13
9.406561354790382E-14
8.717672691064649E-14
8.177828380226799E-14
7.193552646581743E-14
4.069587083200638E-14
2.971318262817879E-14
2.327474511039116E-14
1.834656754371337E-14