# vtk DataFile Version 2.0
A mesh
ASCII
DATASET UNSTRUCTURED_GRID
POINTS 12 double
0.000000000000000E+00 0.000000000000000E+00 0.000000000000000E+00
1.000000000000000E+00 0.000000000000000E+00 0.000000000000000E+00
1.500000000000000E+00 0.000000000000000E+00 0.000000000000000E+00
2.000000000000000E+00 0.000000000000000E+00 0.000000000000000E+00
0.000000000000000E+00 5.000000000000000E-01 0.000000000000000E+00
1.000000000000000E+00 5.000000000000000E-01 0.000000000000000E+00
1.500000000000000E+00 5.000000000000000E-01 0.000000000000000E+00
2.000000000000000E+00 5.000000000000000E-01 0.000000000000000E+00
0.000000000000000E+00 1.000000000000000E+00 0.000000000000000E+00
1.000000000000000E+00 1.000000000000000E+00 0.000000000000000E+00
1.500000000000000E+00 1.000000000000000E+00 0.000000000000000E+00
2.000000000000000E+00 1.000000000000000E+00 0.000000000000000E+00

CELLS 6 30
4 0 1 5 4
4 1 2 6 5
4 2 3 7 6
4 4 5 9 8
4 5 6 10 9
4 6 7 11 10

CELL_TYPES 6
9
9
9
9
9
9

CELL_DATA 6
SCALARS FLUX_1 double 1
LOOKUP_TABLE default
6.497362160559655E-01
7.685575373748857E-01
5.875169320041539E-01
6.497362160858362E-01
7.685575373778948E-01
5.875169320042495E-01

SCALARS FLUX_2 double 1
LOOKUP_TABLE default
4.187260417594538E-01
4.733864250438792E-01
3.561771275655120E-01
4.187260418020974E-01
4.733864250607649E-01
3.561771275569123E-01

