# vtk DataFile Version 2.0
A mesh
ASCII
DATASET UNSTRUCTURED_GRID
POINTS 13041 double
0.000000000000000E+00 0.000000000000000E+00 0.000000000000000E+00
1.250000000000000E-02 0.000000000000000E+00 0.000000000000000E+00
2.500000000000000E-02 0.000000000000000E+00 0.000000000000000E+00
3.750000000000000E-02 0.000000000000000E+00 0.000000000000000E+00
5.000000000000000E-02 0.000000000000000E+00 0.000000000000000E+00
6.250000000000000E-02 0.000000000000000E+00 0.000000000000000E+00
7.500000000000001E-02 0.000000000000000E+00 0.000000000000000E+00
8.750000000000001E-02 0.000000000000000E+00 0.000000000000000E+00
1.000000000000000E-01 0.000000000000000E+00 0.000000000000000E+00
1.125000000000000E-01 0.000000000000000E+00 0.000000000000000E+00
1.250000000000000E-01 0.000000000000000E+00 0.000000000000000E+00
1.375000000000000E-01 0.000000000000000E+00 0.000000000000000E+00
1.500000000000000E-01 0.000000000000000E+00 0.000000000000000E+00
1.625000000000000E-01 0.000000000000000E+00 0.000000000000000E+00
1.750000000000000E-01 0.000000000000000E+00 0.000000000000000E+00
1.875000000000000E-01 0.000000000000000E+00 0.000000000000000E+00
2.000000000000000E-01 0.000000000000000E+00 0.000000000000000E+00
2.125000000000000E-01 0.000000000000000E+00 0.000000000000000E+00
2.250000000000000E-01 0.000000000000000E+00 0.000000000000000E+00
2.375000000000000E-01 0.000000000000000E+00 0.000000000000000E+00
2.500000000000000E-01 0.000000000000000E+00 0.000000000000000E+00
2.625000000000000E-01 0.000000000000000E+00 0.000000000000000E+00
2.750000000000000E-01 0.000000000000000E+00 0.000000000000000E+00
2.875000000000000E-01 0.000000000000000E+00 0.000000000000000E+00
3.000000000000000E-01 0.000000000000000E+00 0.000000000000000E+00
3.125000000000000E-01 0.000000000000000E+00 0.000000000000000E+00
3.250000000000000E-01 0.000000000000000E+00 0.000000000000000E+00
3.375000000000000E-01 0.000000000000000E+00 0.000000000000000E+00
3.500000000000000E-01 0.000000000000000E+00 0.000000000000000E+00
3.625000000000000E-01 0.000000000000000E+00 0.000000000000000E+00
3.750000000000000E-01 0.000000000000000E+00 0.000000000000000E+00
3.875000000000000E-01 0.000000000000000E+00 0.000000000000000E+00
4.000000000000000E-01 0.000000000000000E+00 0.000000000000000E+00
4.125000000000000E-01 0.000000000000000E+00 0.000000000000000E+00
4.250000000000000E-01 0.000000000000000E+00 0.000000000000000E+00
4.375000000000000E-01 0.000000000000000E+00 0.000000000000000E+00
4.500000000000000E-01 0.000000000000000E+00 0.000000000000000E+00
4.625000000000000E-01 0.000000000000000E+00 0.000000000000000E+00
4.750000000000000E-01 0.000000000000000E+00 0.000000000000000E+00
4.875000000000000E-01 0.000000000000000E+00 0.000000000000000E+00
5.000000000000000E-01 0.000000000000000E+00 0.000000000000000E+00
5.125000000000000E-01 0.000000000000000E+00 0.000000000000000E+00
5.250000000000000E-01 0.000000000000000E+00 0.000000000000000E+00
5.375000000000000E-01 0.000000000000000E+00 0.000000000000000E+00
5.500000000000000E-01 0.000000000000000E+00 0.000000000000000E+00
5.625000000000000E-01 0.000000000000000E+00 0.000000000000000E+00
5.750000000000000E-01 0.000000000000000E+00 0.000000000000000E+00
5.875000000000000E-01 0.000000000000000E+00 0.000000000000000E+00
6.000000000000000E-01 0.000000000000000E+00 0.000000000000000E+00
6.125000000000000E-01 0.000000000000000E+00 0.000000000000000E+00
6.250000000000000E-01 0.000000000000000E+00 0.000000000000000E+00
6.375000000000001E-01 0.000000000000000E+00 0.000000000000000E+00
6.500000000000000E-01 0.000000000000000E+00 0.000000000000000E+00
6.625000000000000E-01 0.000000000000000E+00 0.000000000000000E+00
6.750000000000000E-01 0.000000000000000E+00 0.000000000000000E+00
6.875000000000000E-01 0.000000000000000E+00 0.000000000000000E+00
7.000000000000001E-01 0.000000000000000E+00 0.000000000000000E+00
7.125000000000000E-01 0.000000000000000E+00 0.000000000000000E+00
7.250000000000000E-01 0.000000000000000E+00 0.000000000000000E+00
7.375000000000000E-01 0.000000000000000E+00 0.000000000000000E+00
7.500000000000000E-01 0.000000000000000E+00 0.000000000000000E+00
7.625000000000001E-01 0.000000000000000E+00 0.000000000000000E+00
7.750000000000000E-01 0.000000000000000E+00 0.000000000000000E+00
7.875000000000000E-01 0.000000000000000E+00 0.000000000000000E+00
8.000000000000000E-01 0.000000000000000E+00 0.000000000000000E+00
8.125000000000000E-01 0.000000000000000E+00 0.000000000000000E+00
8.250000000000001E-01 0.000000000000000E+00 0.000000000000000E+00
8.375000000000000E-01 0.000000000000000E+00 0.000000000000000E+00
8.500000000000000E-01 0.000000000000000E+00 0.000000000000000E+00
8.625000000000000E-01 0.000000000000000E+00 0.000000000000000E+00
8.750000000000000E-01 0.000000000000000E+00 0.000000000000000E+00
8.875000000000001E-01 0.000000000000000E+00 0.000000000000000E+00
9.000000000000000E-01 0.000000000000000E+00 0.000000000000000E+00
9.125000000000000E-01 0.000000000000000E+00 0.000000000000000E+00
9.250000000000000E-01 0.000000000000000E+00 0.000000000000000E+00
9.375000000000000E-01 0.000000000000000E+00 0.000000000000000E+00
9.500000000000001E-01 0.000000000000000E+00 0.000000000000000E+00
9.625000000000000E-01 0.000000000000000E+00 0.000000000000000E+00
9.750000000000000E-01 0.000000000000000E+00 0.000000000000000E+00
9.875000000000000E-01 0.000000000000000E+00 0.000000000000000E+00
1.000000000000000E+00 0.000000000000000E+00 0.000000000000000E+00
1.012500000000000E+00 0.000000000000000E+00 0.000000000000000E+00
1.025000000000000E+00 0.000000000000000E+00 0.000000000000000E+00
1.037500000000000E+00 0.000000000000000E+00 0.000000000000000E+00
1.050000000000000E+00 0.000000000000000E+00 0.000000000000000E+00
1.062500000000000E+00 0.000000000000000E+00 0.000000000000000E+00
1.075000000000000E+00 0.000000000000000E+00 0.000000000000000E+00
1.087500000000000E+00 0.000000000000000E+00 0.000000000000000E+00
1.100000000000000E+00 0.000000000000000E+00 0.000000000000000E+00
1.112500000000000E+00 0.000000000000000E+00 0.000000000000000E+00
1.125000000000000E+00 0.000000000000000E+00 0.000000000000000E+00
1.137500000000000E+00 0.000000000000000E+00 0.000000000000000E+00
1.150000000000000E+00 0.000000000000000E+00 0.000000000000000E+00
1.162500000000000E+00 0.000000000000000E+00 0.000000000000000E+00
1.175000000000000E+00 0.000000000000000E+00 0.000000000000000E+00
1.187500000000000E+00 0.000000000000000E+00 0.000000000000000E+00
1.200000000000000E+00 0.000000000000000E+00 0.000000000000000E+00
1.212500000000000E+00 0.000000000000000E+00 0.000000000000000E+00
1.225000000000000E+00 0.000000000000000E+00 0.000000000000000E+00
1.237500000000000E+00 0.000000000000000E+00 0.000000000000000E+00
1.250000000000000E+00 0.000000000000000E+00 0.000000000000000E+00
1.262500000000000E+00 0.000000000000000E+00 0.000000000000000E+00
1.275000000000000E+00 0.000000000000000E+00 0.000000000000000E+00
1.287500000000000E+00 0.000000000000000E+00 0.000000000000000E+00
1.300000000000000E+00 0.000000000000000E+00 0.000000000000000E+00
1.312500000000000E+00 0.000000000000000E+00 0.000000000000000E+00
1.325000000000000E+00 0.000000000000000E+00 0.000000000000000E+00
1.337500000000000E+00 0.000000000000000E+00 0.000000000000000E+00
1.350000000000000E+00 0.000000000000000E+00 0.000000000000000E+00
1.362500000000000E+00 0.000000000000000E+00 0.000000000000000E+00
1.375000000000000E+00 0.000000000000000E+00 0.000000000000000E+00
1.387500000000000E+00 0.000000000000000E+00 0.000000000000000E+00
1.400000000000000E+00 0.000000000000000E+00 0.000000000000000E+00
1.412500000000000E+00 0.000000000000000E+00 0.000000000000000E+00
1.425000000000000E+00 0.000000000000000E+00 0.000000000000000E+00
1.437500000000000E+00 0.000000000000000E+00 0.000000000000000E+00
1.450000000000000E+00 0.000000000000000E+00 0.000000000000000E+00
1.462500000000000E+00 0.000000000000000E+00 0.000000000000000E+00
1.475000000000000E+00 0.000000000000000E+00 0.000000000000000E+00
1.487500000000000E+00 0.000000000000000E+00 0.000000000000000E+00
1.500000000000000E+00 0.000000000000000E+00 0.000000000000000E+00
1.512500000000000E+00 0.000000000000000E+00 0.000000000000000E+00
1.525000000000000E+00 0.000000000000000E+00 0.000000000000000E+00
1.537500000000000E+00 0.000000000000000E+00 0.000000000000000E+00
1.550000000000000E+00 0.000000000000000E+00 0.000000000000000E+00
1.562500000000000E+00 0.000000000000000E+00 0.000000000000000E+00
1.575000000000000E+00 0.000000000000000E+00 0.000000000000000E+00
1.587500000000000E+00 0.000000000000000E+00 0.000000000000000E+00
1.600000000000000E+00 0.000000000000000E+00 0.000000000000000E+00
1.612500000000000E+00 0.000000000000000E+00 0.000000000000000E+00
1.625000000000000E+00 0.000000000000000E+00 0.000000000000000E+00
1.637500000000000E+00 0.000000000000000E+00 0.000000000000000E+00
1.650000000000000E+00 0.000000000000000E+00 0.000000000000000E+00
1.662500000000000E+00 0.000000000000000E+00 0.000000000000000E+00
1.675000000000000E+00 0.000000000000000E+00 0.000000000000000E+00
1.687500000000000E+00 0.000000000000000E+00 0.000000000000000E+00
1.700000000000000E+00 0.000000000000000E+00 0.000000000000000E+00
1.712500000000000E+00 0.000000000000000E+00 0.000000000000000E+00
1.725000000000000E+00 0.000000000000000E+00 0.000000000000000E+00
1.737500000000000E+00 0.000000000000000E+00 0.000000000000000E+00
1.750000000000000E+00 0.000000000000000E+00 0.000000000000000E+00
1.762500000000000E+00 0.000000000000000E+00 0.000000000000000E+00
1.775000000000000E+00 0.000000000000000E+00 0.000000000000000E+00
1.787500000000000E+00 0.000000000000000E+00 0.000000000000000E+00
1.800000000000000E+00 0.000000000000000E+00 0.000000000000000E+00
1.812500000000000E+00 0.000000000000000E+00 0.000000000000000E+00
1.825000000000000E+00 0.000000000000000E+00 0.000000000000000E+00
1.837500000000000E+00 0.000000000000000E+00 0.000000000000000E+00
1.850000000000000E+00 0.000000000000000E+00 0.000000000000000E+00
1.862500000000000E+00 0.000000000000000E+00 0.000000000000000E+00
[...]
CELL_DATA 12800
SCALARS FLUX_1 double 1
LOOKUP_TABLE default
3.543927168775068E-01
3.800266940880763E-01
4.046979741232711E-01
4.283998691949610E-01
4.511342852032629E-01
4.729100880626715E-01
4.937417231048464E-01
5.136480575076287E-01
5.326513950341126E-01
5.507766624108492E-01
5.680507217338895E-01
5.845018005061576E-01
6.001590160228834E-01
6.150519868059992E-01
6.292105074771573E-01
6.426642878920427E-01
6.554427395882330E-01
6.675748051253447E-01
6.790888242629447E-01
6.900124285824493E-01
7.003724598817703E-01
7.101949131664537E-01
7.195048914922964E-01
7.283265814927223E-01
7.366832372998410E-01
7.445971739008574E-01
7.520897695266416E-01
7.591814756999490E-01
7.658918297659194E-01
7.722394731666872E-01
7.782421727387430E-01
7.839168438753171E-01
7.892795764255954E-01
7.943456601430944E-01
7.991296127514420E-01
8.036452073997974E-01
8.079054999039996E-01
8.119228574861663E-01
8.157089852771424E-01
8.192749536762417E-01
8.226312250966136E-01
8.257876785470936E-01
8.287536355671762E-01
8.315378844034010E-01
8.341487028230321E-01
8.365938820117863E-01
8.388807481044827E-01
8.410161829378484E-01
8.430066459525198E-01
8.448581938950138E-01
8.465764997336808E-01
8.481668728015380E-01
8.496342775911618E-01
8.509833518855832E-01
8.522184261587609E-01
8.533435424707482E-01
8.543624729575642E-01
8.552787400571267E-01
8.560956375560035E-01
8.568162516700270E-01
8.574434843569030E-01
8.579800794932485E-01
8.584286501718318E-01
8.587917079387410E-01
8.590716970015468E-01
8.592710335200774E-01
8.593921484431271E-01
8.594375359554031E-01
8.594098107081573E-01
8.593117736505869E-01
8.591464867702209E-01
8.589173601438642E-01
8.586282536187138E-01
8.582835944117585E-01
8.578885144309057E-01
8.574490109117683E-01
8.569721328727706E-01
8.564661986809288E-01
8.559410504857549E-01
8.554083518549488E-01
8.550596008326770E-01
8.548095743562181E-01
8.544806072633276E-01
8.540726381320090E-01
8.535855445122014E-01
8.530191415663323E-01
8.523731833158247E-01
8.516473633224245E-01
8.508413146183992E-01
8.499546099384089E-01
8.489867616475748E-01
8.479372218465221E-01
8.468053821865298E-01
8.455905742825857E-01
8.442920696704754E-01
8.429090795653821E-01
8.414407544188790E-01
8.398861838930139E-01
8.382443963847357E-01
8.365143590015960E-01
8.346949772317723E-01
8.327850947109898E-01
8.307834922606361E-01
8.286888878562749E-01
8.264999361770143E-01
8.242152277331709E-01
8.218332884200045E-01
8.193525786546466E-01
8.167714931545874E-01
8.140883601849270E-01
8.113014408262605E-01
8.084089283240878E-01
8.054089469370209E-01
8.022995514330177E-01
7.990787260788850E-01
7.957443838755494E-01
7.922943658965301E-01
7.887264398547741E-01
7.850382994110502E-01
7.812275631952318E-01
7.772917736241426E-01
7.732283963940720E-01
7.690348191484561E-01
7.647083502796704E-01
7.602462182624382E-01
7.556455701185866E-01
7.509034703236493E-01
7.460169002266250E-01
7.409827565525486E-01
7.357978501222857E-01
7.304589050164946E-01
7.249625571395084E-01
7.193053530865700E-01
7.134837494635276E-01
7.074941115478673E-01
7.013327119491936E-01
6.949957298169014E-01
6.884792496454720E-01
6.817792599278497E-01
6.748916525003142E-01
6.678122217561385E-01
6.605366631587463E-01
6.530605720951124E-01
6.453794433901205E-01
6.374886705672921E-01
6.293835448274329E-01
6.210592544405837E-01
6.125108842465712E-01
6.037334147840780E-01
5.947217217162533E-01
5.854705757976995E-01
5.759746425830518E-01
5.662284819929028E-01
5.562265483055827E-01
5.459631905159580E-01
5.354326527386480E-01
5.246290741442093E-01
5.135464894135235E-01
5.021788299689098E-01
4.905199248006303E-01
3.543927170960738E-01
3.800266935479795E-01
4.046979736584905E-01
4.283998687850247E-01
4.511342846306202E-01
4.729100880729465E-01
4.937417237694580E-01
5.136480574427350E-01
5.326513948163245E-01
5.507766621475908E-01
5.680507215353611E-01
5.845018011365989E-01
6.001590175966075E-01
6.150519884549893E-01
6.292105084364219E-01
6.426642876832687E-01
6.554427383966746E-01
6.675748036324075E-01
6.790888234735895E-01
6.900124280189757E-01
7.003724596050910E-01
7.101949130375509E-01
7.195048914841345E-01
7.283265815364569E-01
7.366832371093619E-01
7.445971735071967E-01
7.520897691394849E-01
7.591814754337507E-01
7.658918295794592E-01
7.722394728777705E-01
7.782421724359729E-01
7.839168435794746E-01
7.892795761326071E-01
7.943456599239177E-01
7.991296125041022E-01
8.036452071843725E-01
8.079054996887521E-01
8.119228571369841E-01
8.157089849337910E-01
8.192749533444564E-01
8.226312247636884E-01
8.257876782997322E-01
8.287536352446983E-01
8.315378840296417E-01
8.341487025843831E-01
8.365938817538793E-01
8.388807478028306E-01
8.410161827832837E-01
8.430066458236988E-01
8.448581936891482E-01
8.465764995812233E-01
8.481668726331826E-01
8.496342772910209E-01
8.509833515541668E-01
8.522184258262427E-01
8.533435421719597E-01
8.543624729167357E-01
8.552787402038836E-01
8.560956374683029E-01
8.568162513310240E-01
8.574434840834554E-01
8.579800791212734E-01
8.584286493663366E-01
8.587917070517505E-01
8.590716966435622E-01
8.592710337344265E-01
8.593921489394819E-01
8.594375365758915E-01
8.594098113639375E-01
8.593117742275870E-01
8.591464872189826E-01
8.589173604429284E-01
8.586282535821689E-01
8.582835939578545E-01
8.578885139607689E-01
8.574490107484963E-01
8.569721328148346E-01
8.564661985539991E-01
8.559410504863851E-01
8.554083518493651E-01
8.550596004718694E-01
8.548095742902733E-01
8.544806075534382E-01
8.540726384995433E-01
8.535855445707097E-01
8.530191413283025E-01
8.523731829562513E-01
8.516473632201831E-01
8.508413146345936E-01
8.499546100535241E-01
8.489867617362137E-01
8.479372219292911E-01
8.468053824091938E-01
8.455905746798525E-01
8.442920701525071E-01
8.429090800096662E-01
8.414407546311264E-01
8.398861838308446E-01
8.382443962650635E-01
8.365143589923165E-01
8.346949773231781E-01
8.327850947735882E-01
8.307834922893772E-01
8.286888879082461E-01
8.264999363168530E-01
8.242152279145898E-01
8.218332885992539E-01
8.193525788085519E-01
8.167714932419424E-01
8.140883602447820E-01
8.113014408886233E-01
8.084089284307900E-01
8.054089470603401E-01
8.022995514825695E-01
7.990787260996883E-01
7.957443839107805E-01
7.922943659800652E-01
7.887264400262302E-01
7.850382995851326E-01
7.812275633461701E-01
7.772917737698410E-01
7.732283964813988E-01
7.690348192450448E-01
7.647083504369527E-01
7.602462183787208E-01
7.556455701951433E-01
7.509034703983002E-01
7.460169002533203E-01
7.409827566160833E-01
7.357978503256559E-01
7.304589052590436E-01
7.249625573366330E-01
7.193053532674489E-01
7.134837496182114E-01
7.074941117111399E-01
7.013327122075793E-01
6.949957300718460E-01
6.884792497310714E-01
6.817792599257674E-01
6.748916525671226E-01
6.678122218237691E-01
6.605366631244640E-01
6.530605720554050E-01
6.453794434570628E-01
6.374886707249460E-01
6.293835450727429E-01
6.210592547704314E-01
6.125108845256526E-01
6.037334149058716E-01
5.947217217819115E-01
5.854705759388503E-01
5.759746427246003E-01
5.662284819592639E-01
5.562265481525426E-01
5.459631904570083E-01
5.354326527611493E-01
5.246290741345442E-01
5.135464894066422E-01
5.021788300148033E-01
4.905199248874151E-01
3.543927172767013E-01
3.800266940349947E-01
4.046979740640858E-01
4.283998687754758E-01
4.511342843127603E-01
4.729100873374281E-01
4.937417236722082E-01
5.136480577871754E-01
5.326513948575882E-01
5.507766618375407E-01
5.680507207497961E-01
5.845017995617672E-01
6.001590159412684E-01
6.150519874825258E-01
6.292105085640084E-01
6.426642881851957E-01
6.554427387741895E-01
6.675748036693206E-01
6.790888231264230E-01
6.900124272968814E-01
7.003724593685513E-01
7.101949125308349E-01
7.195048907798108E-01
7.283265811840487E-01
7.366832369302447E-01
7.445971732714234E-01
7.520897689466394E-01
7.591814752010222E-01
7.658918292595690E-01
7.722394724382747E-01
7.782421719605428E-01
7.839168431881687E-01
7.892795756995382E-01
7.943456595078534E-01
7.991296121046069E-01
8.036452066989642E-01
8.079054992396940E-01
8.119228566756038E-01
8.157089844816341E-01
8.192749530464403E-01
8.226312244253411E-01
8.257876778684610E-01
8.287536348395056E-01
8.315378835573481E-01
8.341487021659050E-01
8.365938815321519E-01
8.388807475645932E-01
8.410161825687243E-01
8.430066458427313E-01
8.448581937086734E-01
8.465764994233163E-01
8.481668724948735E-01
8.496342771691979E-01
8.509833513253805E-01
8.522184256527013E-01
8.533435421245202E-01
8.543624728119815E-01
8.552787400415395E-01
8.560956373284713E-01
8.568162511031566E-01
8.574434838765940E-01
8.579800792691676E-01
8.584286497033409E-01
8.587917070871557E-01
8.590716963918523E-01
8.592710334537078E-01
8.593921485116017E-01
8.594375358770954E-01
8.594098106306944E-01
8.593117737582755E-01
8.591464871234035E-01
8.589173604897538E-01
8.586282534428769E-01
8.582835937651576E-01
8.578885139365749E-01
8.574490107853094E-01
8.569721327625783E-01
8.564661985154320E-01
8.559410507094276E-01
8.554083520297155E-01
8.550596005066193E-01
8.548095737289640E-01
8.544806070117051E-01
8.540726383943090E-01
8.535855446515322E-01
8.530191412681001E-01
8.523731828179990E-01
8.516473630540586E-01
8.508413146050892E-01
8.499546101467498E-01
8.489867617900460E-01
8.479372217358467E-01
8.468053819940360E-01
8.455905742416593E-01
8.442920698010005E-01
8.429090797996611E-01
8.414407545920881E-01
8.398861838473077E-01
8.382443962197575E-01
8.365143588945627E-01
8.346949772218355E-01
8.327850945745437E-01
8.307834921019922E-01
8.286888878283597E-01
8.264999363010977E-01
8.242152278850411E-01
8.218332884949376E-01
8.193525786531335E-01
8.167714930596238E-01
8.140883601068121E-01
8.113014408147682E-01
8.084089283413376E-01
8.054089469555733E-01
8.022995513582128E-01
7.990787259962604E-01
7.957443838946475E-01
7.922943659738595E-01
7.887264400070145E-01
7.850382995577978E-01
7.812275632454563E-01
7.772917736625455E-01
7.732283964094160E-01
7.690348191430676E-01
7.647083503558229E-01
7.602462183044891E-01
7.556455700251669E-01
7.509034702548203E-01
7.460169002562305E-01
7.409827566502054E-01
7.357978503451186E-01
7.304589053013139E-01
7.249625573246588E-01
7.193053532049090E-01
7.134837496088482E-01
7.074941116737805E-01
7.013327120350243E-01
6.949957299022121E-01
6.884792496665283E-01
6.817792598341216E-01
6.748916524160056E-01
6.678122217761792E-01
6.605366631761078E-01
6.530605719933578E-01
6.453794432048433E-01
6.374886704038760E-01
6.293835447691581E-01
6.210592544815812E-01
6.125108842953446E-01
6.037334148040250E-01
5.947217217277413E-01
5.854705757991746E-01
5.759746425543982E-01
5.662284818710245E-01
5.562265481300401E-01
5.459631903743281E-01
5.354326525812673E-01
5.246290740462053E-01
5.135464894804065E-01
5.021788300329133E-01
4.905199247308564E-01
3.543927164535545E-01
3.800266934115191E-01
4.046979738975647E-01
4.283998689885050E-01
4.511342843838003E-01
4.729100869342017E-01
4.937417228437178E-01
5.136480572651710E-01
5.326513948846046E-01
5.507766619650418E-01
5.680507212596199E-01
5.845017996030621E-01
6.001590152282635E-01
6.150519862835414E-01
6.292105069564202E-01
6.426642871325443E-01
6.554427379573990E-01
6.675748029964900E-01
6.790888225182282E-01
6.900124265809461E-01
7.003724585117305E-01
7.101949118304148E-01
7.195048901672909E-01
7.283265805338368E-01
7.366832363380797E-01
7.445971727776005E-01
7.520897685220332E-01
7.591814746094564E-01
7.658918285000463E-01
7.722394716746268E-01
7.782421711640499E-01
7.839168424371639E-01
7.892795749154597E-01
7.943456586495382E-01
7.991296113037483E-01
8.036452058281960E-01
8.079054983655862E-01
8.119228559649384E-01
8.157089837931173E-01
8.192749523956282E-01
8.226312237869209E-01
8.257876770600210E-01
8.287536340498951E-01
8.315378829042779E-01
8.341487014656055E-01
8.365938809270078E-01
8.388807472029970E-01
8.410161822006290E-01
8.430066454302101E-01
8.448581934127433E-01
8.465764990486144E-01
8.481668718930587E-01
8.496342766362320E-01
8.509833510409825E-01
8.522184254061812E-01
8.533435417590849E-01
8.543624723775106E-01
8.552787395475234E-01
8.560956366724803E-01
8.568162502409122E-01
8.574434830150619E-01
8.579800787513391E-01
8.584286496323313E-01
8.587917073225373E-01
8.590716967685246E-01
8.592710337115221E-01
8.593921484701097E-01
8.594375357216875E-01
8.594098105084220E-01
8.593117734856686E-01
8.591464865753698E-01
8.589173598769008E-01
8.586282531222199E-01
8.582835937236166E-01
8.578885138303693E-01
8.574490106355115E-01
8.569721329397670E-01
8.564661989518818E-01
8.559410508479725E-01
8.554083522462076E-01
8.550596008186113E-01
8.548095736995719E-01
8.544806067159875E-01
8.540726381092865E-01
8.535855443977736E-01
8.530191412360206E-01
8.523731829808843E-01
8.516473631593551E-01
8.508413147128671E-01
8.499546102780603E-01
8.489867620585969E-01
8.479372220438222E-01
8.468053821736991E-01
8.455905742289801E-01
8.442920695730238E-01
8.429090795528368E-01
8.414407545346020E-01
8.398861840114044E-01
8.382443964127297E-01
8.365143589827514E-01
8.346949772940212E-01
8.327850946875720E-01
8.307834922462497E-01
8.286888879756551E-01
8.264999364121396E-01
8.242152279585779E-01
8.218332885091763E-01
8.193525786648188E-01
8.167714931096290E-01
8.140883601822650E-01
8.113014409266580E-01
8.084089284286855E-01
8.054089470434744E-01
8.022995515127871E-01
7.990787261774611E-01
7.957443841239945E-01
7.922943662118428E-01
7.887264401583315E-01
7.850382996854004E-01
7.812275633616964E-01
7.772917737414617E-01
7.732283965365562E-01
7.690348192627486E-01
7.647083503797480E-01
7.602462183659917E-01
7.556455701743500E-01
7.509034704105279E-01
7.460169004951065E-01
7.409827569965849E-01
7.357978506271897E-01
7.304589055094848E-01
7.249625575979387E-01
7.193053534886993E-01
7.134837497953900E-01
7.074941118282755E-01
7.013327121809184E-01
6.949957299513773E-01
6.884792496760680E-01
6.817792599368948E-01
6.748916525433156E-01
6.678122218206844E-01
6.605366632642611E-01
6.530605722558018E-01
6.453794434860955E-01
6.374886704978132E-01
6.293835447426118E-01
6.210592544964725E-01
6.125108842985124E-01
6.037334146871489E-01
5.947217216009951E-01
5.854705757967654E-01
5.759746425744465E-01
5.662284817401572E-01
5.562265478752458E-01
5.459631902149481E-01
5.354326526093872E-01
5.246290740984574E-01
5.135464893936980E-01
5.021788299235620E-01
4.905199245934677E-01
3.543927165199726E-01
3.800266926252439E-01
4.046979732119694E-01
4.283998689577679E-01
4.511342845237112E-01
4.729100870276575E-01
4.937417227875647E-01
5.136480562793717E-01
5.326513939028881E-01
5.507766611866838E-01
5.680507206846181E-01
5.845017993569176E-01
6.001590151762278E-01
6.150519857230289E-01
6.292105062250440E-01
6.426642862047536E-01
6.554427370234799E-01
6.675748023087549E-01
6.790888215884001E-01
6.900124262396005E-01
7.003724577700334E-01
7.101949109128491E-01
7.195048895138365E-01
7.283265799083953E-01
7.366832357423619E-01
7.445971722010529E-01
7.520897679047338E-01
7.591814738639682E-01
7.658918276227020E-01
7.722394708711340E-01
7.782421703435904E-01
7.839168415626344E-01
7.892795740593633E-01
7.943456576788446E-01
7.991296103366473E-01
8.036452049377061E-01
8.079054974543608E-01
8.119228552022760E-01
8.157089831215851E-01
8.192749515981825E-01
8.226312230103696E-01
8.257876763064924E-01
8.287536332001688E-01
8.315378821805525E-01
8.341487008980940E-01
8.365938802991328E-01
8.388807466763937E-01
8.410161818843380E-01
8.430066449641285E-01
8.448581927156584E-01
8.465764984683392E-01
8.481668714270215E-01
8.496342760481749E-01
8.509833505072941E-01
8.522184251469654E-01
8.533435414821787E-01
8.543624717849081E-01
8.552787388784030E-01
8.560956361933565E-01
8.568162497241330E-01
8.574434822581700E-01
8.579800780897183E-01
8.584286493618714E-01
8.587917071489093E-01
8.590716963759837E-01
8.592710333070324E-01
8.593921482948740E-01
8.594375356094922E-01
8.594098103022411E-01
8.593117732350298E-01
8.591464862137824E-01
8.589173593771725E-01
8.586282526349585E-01
8.582835933820652E-01
8.578885136661084E-01
8.574490106262809E-01
8.569721332289714E-01
8.564661992199989E-01
8.559410508047928E-01
8.554083521956458E-01
8.550596008189774E-01
8.548095737457335E-01
8.544806065645448E-01
8.540726377313592E-01
8.535855440318556E-01
8.530191411758542E-01
8.523731830038742E-01
8.516473632375720E-01
8.508413146603577E-01
8.499546101723802E-01
8.489867620183900E-01
8.479372220852794E-01
8.468053821951194E-01
8.455905741974750E-01
8.442920695143060E-01
8.429090794089913E-01
8.414407543595604E-01
8.398861838970532E-01
8.382443963358565E-01
8.365143589153718E-01
8.346949772347283E-01
8.327850947260117E-01
8.307834923443204E-01
8.286888880323006E-01
8.264999363812648E-01
8.242152279134762E-01
8.218332884642299E-01
8.193525786192304E-01
8.167714931019122E-01
8.140883601700101E-01
8.113014409324979E-01
8.084089284662261E-01
8.054089470954988E-01
8.022995516628874E-01
7.990787263820301E-01
7.957443842898928E-01
7.922943663647087E-01
7.887264402488646E-01
7.850382997257568E-01
7.812275634591583E-01
7.772917738089924E-01
7.732283965177555E-01
7.690348192794735E-01
7.647083504054624E-01
7.602462183672760E-01
7.556455703301161E-01
7.509034707230643E-01
7.460169007448653E-01
7.409827572055427E-01
7.357978509546972E-01
7.304589058665557E-01
7.249625578437879E-01
7.193053536788814E-01
7.134837499744486E-01
7.074941119464797E-01
7.013327122785121E-01
6.949957300894871E-01
6.884792497652424E-01
6.817792599144190E-01
6.748916525552889E-01
6.678122219726002E-01
6.605366633860064E-01
6.530605721884939E-01
6.453794433979815E-01
6.374886705949685E-01
6.293835448910150E-01
6.210592544584190E-01
6.125108841167154E-01
6.037334145987145E-01
5.947217216576199E-01
5.854705757517401E-01
5.759746423347364E-01
5.662284815430266E-01
5.562265478508353E-01
5.459631902338343E-01
5.354326524805004E-01
5.246290739258382E-01
5.135464893149765E-01
5.021788298831491E-01
4.905199246323000E-01
3.543927172046953E-01
3.800266930355370E-01
4.046979728314381E-01
4.283998686499939E-01
4.511342844949693E-01
4.729100871810937E-01
4.937417229954327E-01
5.136480565631319E-01
5.326513937666882E-01
5.507766602110185E-01
5.680507197484944E-01
5.845017984011898E-01
6.001590146246027E-01
6.150519852622452E-01
6.292105057222244E-01
6.426642855341251E-01
6.554427362490206E-01
6.675748015509381E-01
6.790888206396188E-01
6.900124253258451E-01
7.003724570602037E-01
7.101949102251802E-01
7.195048888043196E-01
7.283265791522463E-01
7.366832350689044E-01
7.445971715086606E-01
7.520897670551342E-01
7.591814729896941E-01
7.658918267162359E-01
7.722394700190466E-01
7.782421695192073E-01
7.839168405840632E-01
7.892795730752890E-01
7.943456566887819E-01
7.991296092725141E-01
8.036452039919659E-01
8.079054965452633E-01
8.119228542524141E-01
8.157089822891638E-01
8.192749507258378E-01
8.226312220265674E-01
8.257876754905018E-01
8.287536324644529E-01
8.315378813293666E-01
8.341487001983989E-01
8.365938798184310E-01
8.388807460583554E-01
8.410161811113499E-01
8.430066442695761E-01
8.448581920062241E-01
8.465764976678986E-01
8.481668707993245E-01
8.496342756609655E-01
8.509833500657996E-01
8.522184246005539E-01
8.533435410586657E-01
8.543624713391558E-01
8.552787380499935E-01
8.560956352401218E-01
8.568162492364257E-01
8.574434821266780E-01
8.579800777896986E-01
8.584286489159543E-01
8.587917068459031E-01
8.590716961492143E-01
8.592710329879485E-01
8.593921478573382E-01
8.594375351537138E-01
8.594098100128520E-01
8.593117730148964E-01
8.591464857601119E-01
8.589173586851436E-01
8.586282519453472E-01
8.582835929375615E-01
8.578885134765006E-01
8.574490105903897E-01
8.569721332219403E-01
8.564661991875226E-01
8.559410508548461E-01
8.554083518870400E-01
8.550596003475146E-01
8.548095734376367E-01
8.544806062487191E-01
8.540726374003959E-01
8.535855437216235E-01
8.530191408651326E-01
8.523731827534484E-01
8.516473631269733E-01
8.508413147303701E-01
8.499546101684667E-01
8.489867618304717E-01
8.479372217324178E-01
8.468053818064243E-01
8.455905739072898E-01
8.442920693685548E-01
8.429090792809802E-01
8.414407541673639E-01
8.398861836520145E-01
8.382443961135704E-01
8.365143587430757E-01
8.346949771138316E-01
8.327850946421674E-01
8.307834922372677E-01
8.286888879078659E-01
8.264999362319024E-01
8.242152277605677E-01