# vtk DataFile Version 2.0
A mesh
ASCII
DATASET UNSTRUCTURED_GRID
POINTS 861 double
0.000000000000000E+00 0.000000000000000E+00 0.000000000000000E+00
5.000000000000000E-02 0.000000000000000E+00 0.000000000000000E+00
1.000000000000000E-01 0.000000000000000E+00 0.000000000000000E+00
1.500000000000000E-01 0.000000000000000E+00 0.000000000000000E+00
2.000000000000000E-01 0.000000000000000E+00 0.000000000000000E+00
2.500000000000000E-01 0.000000000000000E+00 0.000000000000000E+00
3.000000000000000E-01 0.000000000000000E+00 0.000000000000000E+00
3.500000000000000E-01 0.000000000000000E+00 0.000000000000000E+00
4.000000000000000E-01 0.000000000000000E+00 0.000000000000000E+00
4.500000000000001E-01 0.000000000000000E+00 0.000000000000000E+00
5.000000000000000E-01 0.000000000000000E+00 0.000000000000000E+00
5.500000000000000E-01 0.000000000000000E+00 0.000000000000000E+00
6.000000000000001E-01 0.000000000000000E+00 0.000000000000000E+00
6.500000000000000E-01 0.000000000000000E+00 0.000000000000000E+00
7.000000000000001E-01 0.000000000000000E+00 0.000000000000000E+00
7.500000000000001E-01 0.000000000000000E+00 0.000000000000000E+00
8.000000000000000E-01 0.000000000000000E+00 0.000000000000000E+00
8.500000000000001E-01 0.000000000000000E+00 0.000000000000000E+00
9.000000000000000E-01 0.000000000000000E+00 0.000000000000000E+00
9.500000000000001E-01 0.000000000000000E+00 0.000000000000000E+00
1.000000000000000E+00 0.000000000000000E+00 0.000000000000000E+00
1.050000000000000E+00 0.000000000000000E+00 0.000000000000000E+00
1.100000000000000E+00 0.000000000000000E+00 0.000000000000000E+00
1.150000000000000E+00 0.000000000000000E+00 0.000000000000000E+00
1.200000000000000E+00 0.000000000000000E+00 0.000000000000000E+00
1.250000000000000E+00 0.000000000000000E+00 0.000000000000000E+00
1.300000000000000E+00 0.000000000000000E+00 0.000000000000000E+00
1.350000000000000E+00 0.000000000000000E+00 0.000000000000000E+00
1.400000000000000E+00 0.000000000000000E+00 0.000000000000000E+00
1.450000000000000E+00 0.000000000000000E+00 0.000000000000000E+00
1.500000000000000E+00 0.000000000000000E+00 0.000000000000000E+00
1.550000000000000E+00 0.000000000000000E+00 0.000000000000000E+00
1.600000000000000E+00 0.000000000000000E+00 0.000000000000000E+00
1.650000000000000E+00 0.000000000000000E+00 0.000000000000000E+00
1.700000000000000E+00 0.000000000000000E+00 0.000000000000000E+00
1.750000000000000E+00 0.000000000000000E+00 0.000000000000000E+00
1.800000000000000E+00 0.000000000000000E+00 0.000000000000000E+00
1.850000000000000E+00 0.000000000000000E+00 0.000000000000000E+00
1.900000000000000E+00 0.000000000000000E+00 0.000000000000000E+00
1.950000000000000E+00 0.000000000000000E+00 0.000000000000000E+00
2.000000000000000E+00 0.000000000000000E+00 0.000000000000000E+00
0.000000000000000E+00 5.000000000000000E-02 0.000000000000000E+00
5.000000000000000E-02 5.000000000000000E-02 0.000000000000000E+00
1.000000000000000E-01 5.000000000000000E-02 0.000000000000000E+00
1.500000000000000E-01 5.000000000000000E-02 0.000000000000000E+00
2.000000000000000E-01 5.000000000000000E-02 0.000000000000000E+00
2.500000000000000E-01 5.000000000000000E-02 0.000000000000000E+00
3.000000000000000E-01 5.000000000000000E-02 0.000000000000000E+00
3.500000000000000E-01 5.000000000000000E-02 0.000000000000000E+00
4.000000000000000E-01 5.000000000000000E-02 0.000000000000000E+00
4.500000000000001E-01 5.000000000000000E-02 0.000000000000000E+00
5.000000000000000E-01 5.000000000000000E-02 0.000000000000000E+00
5.500000000000000E-01 5.000000000000000E-02 0.000000000000000E+00
6.000000000000001E-01 5.000000000000000E-02 0.000000000000000E+00
6.500000000000000E-01 5.000000000000000E-02 0.000000000000000E+00
7.000000000000001E-01 5.000000000000000E-02 0.000000000000000E+00
7.500000000000001E-01 5.000000000000000E-02 0.000000000000000E+00
8.000000000000000E-01 5.000000000000000E-02 0.000000000000000E+00
8.500000000000001E-01 5.000000000000000E-02 0.000000000000000E+00
9.000000000000000E-01 5.000000000000000E-02 0.000000000000000E+00
9.500000000000001E-01 5.000000000000000E-02 0.000000000000000E+00
1.000000000000000E+00 5.000000000000000E-02 0.000000000000000E+00
1.050000000000000E+00 5.000000000000000E-02 0.000000000000000E+00
1.100000000000000E+00 5.000000000000000E-02 0.000000000000000E+00
1.150000000000000E+00 5.000000000000000E-02 0.000000000000000E+00
1.200000000000000E+00 5.000000000000000E-02 0.000000000000000E+00
1.250000000000000E+00 5.000000000000000E-02 0.000000000000000E+00
1.300000000000000E+00 5.000000000000000E-02 0.000000000000000E+00
1.350000000000000E+00 5.000000000000000E-02 0.000000000000000E+00
1.400000000000000E+00 5.000000000000000E-02 0.000000000000000E+00
1.450000000000000E+00 5.000000000000000E-02 0.000000000000000E+00
1.500000000000000E+00 5.000000000000000E-02 0.000000000000000E+00
1.550000000000000E+00 5.000000000000000E-02 0.000000000000000E+00
1.600000000000000E+00 5.000000000000000E-02 0.000000000000000E+00
1.650000000000000E+00 5.000000000000000E-02 0.000000000000000E+00
1.700000000000000E+00 5.000000000000000E-02 0.000000000000000E+00
1.750000000000000E+00 5.000000000000000E-02 0.000000000000000E+00
1.800000000000000E+00 5.000000000000000E-02 0.000000000000000E+00
1.850000000000000E+00 5.000000000000000E-02 0.000000000000000E+00
1.900000000000000E+00 5.000000000000000E-02 0.000000000000000E+00
1.950000000000000E+00 5.000000000000000E-02 0.000000000000000E+00
2.000000000000000E+00 5.000000000000000E-02 0.000000000000000E+00
0.000000000000000E+00 1.000000000000000E-01 0.000000000000000E+00
5.000000000000000E-02 1.000000000000000E-01 0.000000000000000E+00
1.000000000000000E-01 1.000000000000000E-01 0.000000000000000E+00
1.500000000000000E-01 1.000000000000000E-01 0.000000000000000E+00
2.000000000000000E-01 1.000000000000000E-01 0.000000000000000E+00
2.500000000000000E-01 1.000000000000000E-01 0.000000000000000E+00
3.000000000000000E-01 1.000000000000000E-01 0.000000000000000E+00
3.500000000000000E-01 1.000000000000000E-01 0.000000000000000E+00
4.000000000000000E-01 1.000000000000000E-01 0.000000000000000E+00
4.500000000000001E-01 1.000000000000000E-01 0.000000000000000E+00
5.000000000000000E-01 1.000000000000000E-01 0.000000000000000E+00
5.500000000000000E-01 1.000000000000000E-01 0.000000000000000E+00
6.000000000000001E-01 1.000000000000000E-01 0.000000000000000E+00
6.500000000000000E-01 1.000000000000000E-01 0.000000000000000E+00
7.000000000000001E-01 1.000000000000000E-01 0.000000000000000E+00
7.500000000000001E-01 1.000000000000000E-01 0.000000000000000E+00
8.000000000000000E-01 1.000000000000000E-01 0.000000000000000E+00
8.500000000000001E-01 1.000000000000000E-01 0.000000000000000E+00
9.000000000000000E-01 1.000000000000000E-01 0.000000000000000E+00
9.500000000000001E-01 1.000000000000000E-01 0.000000000000000E+00
1.000000000000000E+00 1.000000000000000E-01 0.000000000000000E+00
1.050000000000000E+00 1.000000000000000E-01 0.000000000000000E+00
1.100000000000000E+00 1.000000000000000E-01 0.000000000000000E+00
1.150000000000000E+00 1.000000000000000E-01 0.000000000000000E+00
1.200000000000000E+00 1.000000000000000E-01 0.000000000000000E+00
1.250000000000000E+00 1.000000000000000E-01 0.000000000000000E+00
1.300000000000000E+00 1.000000000000000E-01 0.000000000000000E+00
1.350000000000000E+00 1.000000000000000E-01 0.000000000000000E+00
1.400000000000000E+00 1.000000000000000E-01 0.000000000000000E+00
1.450000000000000E+00 1.000000000000000E-01 0.000000000000000E+00
1.500000000000000E+00 1.000000000000000E-01 0.000000000000000E+00
1.550000000000000E+00 1.000000000000000E-01 0.000000000000000E+00
1.600000000000000E+00 1.000000000000000E-01 0.000000000000000E+00
1.650000000000000E+00 1.000000000000000E-01 0.000000000000000E+00
1.700000000000000E+00 1.000000000000000E-01 0.000000000000000E+00
1.750000000000000E+00 1.000000000000000E-01 0.000000000000000E+00
1.800000000000000E+00 1.000000000000000E-01 0.000000000000000E+00
1.850000000000000E+00 1.000000000000000E-01 0.000000000000000E+00
1.900000000000000E+00 1.000000000000000E-01 0.000000000000000E+00
1.950000000000000E+00 1.000000000000000E-01 0.000000000000000E+00
2.000000000000000E+00 1.000000000000000E-01 0.000000000000000E+00
0.000000000000000E+00 1.500000000000000E-01 0.000000000000000E+00
5.000000000000000E-02 1.500000000000000E-01 0.000000000000000E+00
1.000000000000000E-01 1.500000000000000E-01 0.000000000000000E+00
1.500000000000000E-01 1.500000000000000E-01 0.000000000000000E+00
2.000000000000000E-01 1.500000000000000E-01 0.000000000000000E+00
2.500000000000000E-01 1.500000000000000E-01 0.000000000000000E+00
3.000000000000000E-01 1.500000000000000E-01 0.000000000000000E+00
3.500000000000000E-01 1.500000000000000E-01 0.000000000000000E+00
4.000000000000000E-01 1.500000000000000E-01 0.000000000000000E+00
4.500000000000001E-01 1.500000000000000E-01 0.000000000000000E+00
5.000000000000000E-01 1.500000000000000E-01 0.000000000000000E+00
5.500000000000000E-01 1.500000000000000E-01 0.000000000000000E+00
6.000000000000001E-01 1.500000000000000E-01 0.000000000000000E+00
6.500000000000000E-01 1.500000000000000E-01 0.000000000000000E+00
7.000000000000001E-01 1.500000000000000E-01 0.000000000000000E+00
7.500000000000001E-01 1.500000000000000E-01 0.000000000000000E+00
8.000000000000000E-01 1.500000000000000E-01 0.000000000000000E+00
8.500000000000001E-01 1.500000000000000E-01 0.000000000000000E+00
9.000000000000000E-01 1.500000000000000E-01 0.000000000000000E+00
9.500000000000001E-01 1.500000000000000E-01 0.000000000000000E+00
1.000000000000000E+00 1.500000000000000E-01 0.000000000000000E+00
1.050000000000000E+00 1.500000000000000E-01 0.000000000000000E+00
1.100000000000000E+00 1.500000000000000E-01 0.000000000000000E+00
1.150000000000000E+00 1.500000000000000E-01 0.000000000000000E+00
1.200000000000000E+00 1.500000000000000E-01 0.000000000000000E+00
1.250000000000000E+00 1.500000000000000E-01 0.000000000000000E+00
1.300000000000000E+00 1.500000000000000E-01 0.000000000000000E+00
[...]
CELL_DATA 800
SCALARS FLUX_1 double 1
LOOKUP_TABLE default
3.678827189749373E-01
4.627261013526867E-01
5.422706518509197E-01
6.079729582359746E-01
6.616982925948651E-01
7.053221844904115E-01
7.405544903803025E-01
7.688765483405032E-01
7.915333747125156E-01
8.095505355900366E-01
8.237602037985885E-01
8.348288562866446E-01
8.432832690609743E-01
8.495337769420360E-01
8.538951553688531E-01
8.566065728820047E-01
8.578534213929832E-01
8.577960163006709E-01
8.566140768290675E-01
8.545831074032264E-01
8.530123105372409E-01
8.509618033883194E-01
8.476181680295738E-01
8.429525567906175E-01
8.369205775125833E-01
8.294621915071617E-01
8.205014315914170E-01
8.099459488695725E-01
7.976864089598485E-01
7.835957462785438E-01
7.675282947247936E-01
7.493188106012215E-01
7.287814072036725E-01
7.057084300432299E-01
6.798693027478270E-01
6.510093901936297E-01
6.188489354226943E-01
5.830821406810347E-01
5.433764897480403E-01
4.993724376015285E-01
3.678827179834555E-01
4.627261019717899E-01
5.422706513681862E-01
6.079729575439253E-01
6.616982923967019E-01
7.053221852021647E-01
7.405544899196934E-01
7.688765482874130E-01
7.915333750214129E-01
8.095505356325150E-01
8.237602039250718E-01
8.348288563186053E-01
8.432832688182718E-01
8.495337768222367E-01
8.538951553390133E-01
8.566065726209909E-01
8.578534211259122E-01
8.577960165547758E-01
8.566140774344650E-01
8.545831075282914E-01
8.530123100682472E-01
8.509618027234241E-01
8.476181677313697E-01
8.429525569238583E-01
8.369205778431857E-01
8.294621917200802E-01
8.205014314888612E-01
8.099459486409040E-01
7.976864085753426E-01
7.835957458612099E-01
7.675282943643907E-01
7.493188105322736E-01
7.287814075508205E-01
7.057084303905816E-01
6.798693027848219E-01
6.510093901590980E-01
6.188489354625434E-01
5.830821405700920E-01
5.433764894050018E-01
4.993724372725068E-01
3.678827175848734E-01
4.627261027002033E-01
5.422706522838733E-01
6.079729586450472E-01
6.616982930699291E-01
7.053221862075927E-01
7.405544907165756E-01
7.688765488629155E-01
7.915333758615352E-01
8.095505360719348E-01
8.237602040581125E-01
8.348288570754092E-01
8.432832697846302E-01
8.495337772844573E-01
8.538951556915378E-01
8.566065732468541E-01
8.578534215841622E-01
8.577960164888602E-01
8.566140770898952E-01
8.545831075250171E-01
8.530123103484669E-01
8.509618025166679E-01
8.476181665971698E-01
8.429525552898867E-01
8.369205762974804E-01
8.294621905689313E-01
8.205014305408959E-01
8.099459478124607E-01
7.976864076278951E-01
7.835957448908137E-01
7.675282937338767E-01
7.493188100150209E-01
7.287814069250048E-01
7.057084297928179E-01
6.798693021159546E-01
6.510093893203652E-01
6.188489346937732E-01
5.830821401214032E-01
5.433764893902643E-01
4.993724370000756E-01
3.678827181915659E-01
4.627261033630163E-01
5.422706534531763E-01
6.079729595666038E-01
6.616982941565369E-01
7.053221862037014E-01
7.405544911441357E-01
7.688765488873417E-01
7.915333755277699E-01
8.095505360571233E-01
8.237602040472621E-01
8.348288568355389E-01
8.432832696491235E-01
8.495337775563969E-01
8.538951562949314E-01
8.566065739837443E-01
8.578534222848578E-01
8.577960168442463E-01
8.566140769314944E-01
8.545831075632747E-01
8.530123102905941E-01
8.509618023934142E-01
8.476181661624549E-01
8.429525546435289E-01
8.369205756036444E-01
8.294621900191168E-01
8.205014300439381E-01
8.099459474711032E-01
7.976864076997412E-01
7.835957450319111E-01
7.675282939142138E-01
7.493188105141185E-01
7.287814074684436E-01
7.057084298317821E-01
6.798693017184003E-01
6.510093890934537E-01
6.188489348824314E-01
5.830821403764241E-01
5.433764893138143E-01
4.993724371069207E-01
3.678827187591930E-01
4.627261043036920E-01
5.422706543506470E-01
6.079729597635185E-01
6.616982946743730E-01
7.053221861996321E-01
7.405544910254036E-01
7.688765490594991E-01
7.915333754069346E-01
8.095505355145811E-01
8.237602037066211E-01
8.348288569975073E-01
8.432832698930236E-01
8.495337775149909E-01
8.538951559836169E-01
8.566065740275326E-01
8.578534230136161E-01
8.577960178614374E-01
8.566140778407678E-01
8.545831073685041E-01
8.530123094175791E-01
8.509618013671556E-01
8.476181654025498E-01
8.429525540012037E-01
8.369205746592925E-01
8.294621891564459E-01
8.205014296142454E-01
8.099459470429352E-01
7.976864072662655E-01
7.835957449865780E-01
7.675282941934425E-01
7.493188105870401E-01
7.287814071445859E-01
7.057084293733863E-01
6.798693014560528E-01
6.510093889806453E-01
6.188489345675903E-01
5.830821399035414E-01
5.433764887310607E-01
4.993724368847429E-01
3.678827188005691E-01
4.627261049589451E-01
5.422706555361583E-01
6.079729601821315E-01
6.616982939265885E-01
7.053221864850157E-01
7.405544911657423E-01
7.688765486631023E-01
7.915333749526764E-01
8.095505352564213E-01
8.237602035677798E-01
8.348288568427314E-01
8.432832697456112E-01
8.495337776072340E-01
8.538951560816156E-01
8.566065738321255E-01
8.578534229424354E-01
8.577960180663528E-01
8.566140779330702E-01
8.545831066025563E-01
8.530123087187264E-01
8.509618001999094E-01
8.476181640103995E-01
8.429525528316265E-01
8.369205737991802E-01
8.294621881930022E-01
8.205014286099730E-01
8.099459465171358E-01
7.976864072079598E-01
7.835957449390752E-01
7.675282939067714E-01
7.493188100228618E-01
7.287814065560252E-01
7.057084288480675E-01
6.798693009544143E-01
6.510093884869279E-01
6.188489339871730E-01
5.830821392942084E-01
5.433764884144414E-01
4.993724364963111E-01
3.678827196577054E-01
4.627261047488809E-01
5.422706548601843E-01
6.079729600601586E-01
6.616982937514658E-01
7.053221862340681E-01
7.405544906623861E-01
7.688765479523901E-01
7.915333743967681E-01
8.095505348779617E-01
8.237602031003273E-01
8.348288560970077E-01
8.432832687493671E-01
8.495337767053424E-01
8.538951555314677E-01
8.566065732635810E-01
8.578534217996735E-01
8.577960170517737E-01
8.566140774707609E-01
8.545831061978160E-01
8.530123077516973E-01
8.509617995561970E-01
8.476181635748782E-01
8.429525521614780E-01
8.369205730063370E-01
8.294621876924841E-01
8.205014285742734E-01
8.099459468525633E-01
7.976864076564592E-01
7.835957452846033E-01
7.675282941963583E-01
7.493188101701643E-01
7.287814066941413E-01
7.057084290001805E-01
6.798693010299079E-01
6.510093884497745E-01
6.188489340297052E-01
5.830821393933008E-01
5.433764887202954E-01
4.993724367226693E-01
3.678827198359207E-01
4.627261050810714E-01
5.422706549719075E-01
6.079729594135503E-01
6.616982938131530E-01
7.053221859823925E-01
7.405544902913797E-01
7.688765475389007E-01
7.915333739718261E-01
8.095505343341383E-01
8.237602024403614E-01
8.348288554384438E-01
8.432832680643876E-01
8.495337759021856E-01
8.538951543612768E-01
8.566065723167335E-01
8.578534216120510E-01
8.577960167853553E-01
8.566140763529919E-01
8.545831059397517E-01
8.530123076441125E-01
8.509617994666997E-01
8.476181631499662E-01
8.429525516198294E-01
8.369205727312280E-01
8.294621878186972E-01
8.205014290744732E-01
8.099459474702255E-01
7.976864082291770E-01
7.835957458237324E-01
7.675282948469142E-01
7.493188107158548E-01
7.287814069860662E-01
7.057084290976797E-01
6.798693010107486E-01
6.510093882993078E-01
6.188489339808469E-01
5.830821394631851E-01
5.433764886352261E-01
4.993724368052654E-01
3.678827193234175E-01
4.627261045104276E-01
5.422706549413800E-01
6.079729592973420E-01
6.616982935183771E-01
7.053221855716379E-01
7.405544899197168E-01
7.688765469961869E-01
7.915333732864511E-01
8.095505335979557E-01
8.237602018725552E-01
8.348288550512906E-01
8.432832674545696E-01
8.495337751324779E-01
8.538951537071056E-01
8.566065715390441E-01
8.578534208724290E-01
8.577960163217418E-01
8.566140759574722E-01
8.545831054801133E-01
8.530123075063163E-01
8.509617991557104E-01
8.476181626575461E-01
8.429525512515370E-01
8.369205727119612E-01
8.294621881229584E-01
8.205014295644554E-01
8.099459479993802E-01
7.976864087545771E-01
7.835957463216739E-01
7.675282952953991E-01
7.493188111196681E-01
7.287814071084592E-01
7.057084289283154E-01
6.798693007075386E-01
6.510093879958302E-01
6.188489338253413E-01
5.830821393998017E-01
5.433764884661605E-01
4.993724365039034E-01
3.678827197452366E-01
4.627261047998975E-01
5.422706547686108E-01
6.079729600077917E-01
6.616982936498073E-01
7.053221856542643E-01
7.405544900185876E-01
7.688765467507002E-01
7.915333727500170E-01
8.095505328971931E-01
8.237602011556370E-01
8.348288544569542E-01
8.432832669014585E-01
8.495337740651018E-01
8.538951524789863E-01
8.566065707348458E-01
8.578534202561280E-01
8.577960158570196E-01
8.566140763670557E-01
8.545831054119936E-01
8.530123074114689E-01
8.509617989954087E-01
8.476181626578888E-01
8.429525515863844E-01
8.369205732837982E-01
8.294621888669419E-01
8.205014303856637E-01
8.099459488378707E-01
7.976864096008640E-01
7.835957472298252E-01
7.675282959525210E-01
7.493188117759682E-01
7.287814078232077E-01
7.057084295040779E-01
6.798693010544516E-01
6.510093882341347E-01
6.188489339900866E-01
5.830821393480482E-01
5.433764885676097E-01
4.993724364879846E-01
3.678827202161388E-01
4.627261059771859E-01
5.422706556889983E-01
6.079729607638457E-01
6.616982941845063E-01
7.053221859241535E-01
7.405544899947732E-01
7.688765462787190E-01
7.915333720299810E-01
8.095505323032410E-01
8.237602006197601E-01
8.348288534503273E-01
8.432832657266075E-01
8.495337729760566E-01
8.538951514504344E-01
8.566065698977074E-01
8.578534194592004E-01
8.577960150614586E-01
8.566140758144730E-01
8.545831052547649E-01
8.530123070747229E-01
8.509617987428749E-01
8.476181625454809E-01
8.429525516591028E-01
8.369205735097001E-01
8.294621890663006E-01
8.205014305384274E-01
8.099459490102547E-01
7.976864097351366E-01
7.835957476049220E-01
7.675282962184775E-01
7.493188117756342E-01
7.287814077542222E-01
7.057084294386404E-01
6.798693010023718E-01
6.510093882223013E-01
6.188489338891472E-01
5.830821391008305E-01
5.433764882949844E-01
4.993724364357193E-01
3.678827207803818E-01
4.627261066289224E-01
5.422706571247384E-01
6.079729615111839E-01
6.616982951530753E-01
7.053221865787126E-01
7.405544903664307E-01
7.688765464382197E-01
7.915333717227979E-01
8.095505315309602E-01
8.237601996351919E-01
8.348288521043474E-01
8.432832641488021E-01
8.495337716302034E-01
8.538951503043382E-01
8.566065686261543E-01
8.578534181649810E-01
8.577960140663599E-01
8.566140742639423E-01
8.545831042585618E-01
8.530123065656264E-01
8.509617984269640E-01
8.476181622705939E-01
8.429525513064958E-01
8.369205733188427E-01
8.294621889552390E-01
8.205014304153612E-01
8.099459489317165E-01
7.976864095545060E-01
7.835957473695948E-01
7.675282961488620E-01
7.493188117898074E-01
7.287814078230975E-01
7.057084295479373E-01
6.798693011712540E-01
6.510093883497081E-01
6.188489338505414E-01
5.830821391963659E-01
5.433764882423739E-01
4.993724363943544E-01
3.678827224123699E-01
4.627261082038420E-01
5.422706586643820E-01
6.079729629968793E-01
6.616982966878246E-01
7.053221876558282E-01
7.405544910662347E-01
7.688765471425414E-01
7.915333722878080E-01
8.095505314163055E-01
8.237601988914750E-01
8.348288512462161E-01
8.432832635006355E-01
8.495337712859489E-01
8.538951501321848E-01
8.566065684404277E-01
8.578534181778154E-01
8.577960143736101E-01
8.566140748358928E-01
8.545831045745714E-01
8.530123069062765E-01
8.509617989258750E-01
8.476181627551711E-01
8.429525516921570E-01
8.369205736371829E-01
8.294621893522905E-01
8.205014307818547E-01
8.099459490859973E-01
7.976864097825005E-01
7.835957475467225E-01
7.675282963404538E-01
7.493188119717278E-01
7.287814079983675E-01
7.057084297408823E-01
6.798693014007692E-01
6.510093884611591E-01
6.188489338945211E-01
5.830821392907207E-01
5.433764885386930E-01
4.993724366671158E-01
3.678827233519626E-01
4.627261097673475E-01
5.422706594810082E-01
6.079729644382423E-01
6.616982983125445E-01
7.053221894110060E-01
7.405544926131731E-01
7.688765481774218E-01
7.915333730401061E-01
8.095505318734916E-01
8.237601989964239E-01
8.348288512826023E-01
8.432832636071496E-01
8.495337712249923E-01
8.538951498421827E-01
8.566065682462641E-01
8.578534182923563E-01
8.577960140222176E-01
8.566140749652382E-01
8.545831047044705E-01
8.530123071531048E-01
8.509617992752272E-01
8.476181631380203E-01
8.429525522111158E-01
8.369205736957316E-01
8.294621889182934E-01
8.205014303602087E-01
8.099459487659334E-01
7.976864094949967E-01
7.835957471960289E-01
7.675282960191898E-01
7.493188117558830E-01
7.287814079097265E-01
7.057084297315666E-01
6.798693013814536E-01
6.510093883284640E-01
6.188489339492977E-01
5.830821392713091E-01
5.433764886135967E-01
4.993724367420889E-01
3.678827238575301E-01
4.627261105419436E-01
5.422706603750149E-01
6.079729657982693E-01
6.616982998955044E-01
7.053221912734117E-01
7.405544943627191E-01
7.688765492224295E-01
7.915333733798541E-01
8.095505320916739E-01
8.237601994197002E-01
8.348288518653775E-01
8.432832641394631E-01
8.495337715570652E-01
8.538951502704119E-01
8.566065690629572E-01
8.578534192390234E-01
8.577960147161076E-01
8.566140749694308E-01
8.545831046991773E-01
8.530123077327507E-01
8.509618002252561E-01
8.476181639062599E-01
8.429525527849123E-01
8.369205742626670E-01
8.294621895453717E-01
8.205014305280053E-01
8.099459487528000E-01
7.976864094081805E-01
7.835957470330219E-01
7.675282958139434E-01
7.493188116225550E-01
7.287814078762687E-01
7.057084297028651E-01
6.798693013103115E-01
6.510093883016473E-01
6.188489340515915E-01
5.830821396107555E-01
5.433764889092451E-01
4.993724367600319E-01
3.678827243501546E-01
4.627261106971888E-01
5.422706614305164E-01
6.079729668514029E-01
6.616983011878049E-01
7.053221926453687E-01
7.405544954698561E-01
7.688765500129724E-01
7.915333738961815E-01
8.095505326093275E-01
8.237601998534225E-01
8.348288519105094E-01
8.432832638842788E-01
8.495337715157992E-01
8.538951508453601E-01
8.566065696651127E-01
8.578534186888933E-01
8.577960142553354E-01
8.566140750909063E-01
8.545831055533587E-01
8.530123083066530E-01
8.509618004470246E-01
8.476181642543265E-01
8.429525532119795E-01
8.369205742711767E-01
8.294621894777808E-01
8.205014304181948E-01
8.099459485154067E-01
7.976864090850304E-01
7.835957467324798E-01
7.675282954953950E-01
7.493188112845951E-01
7.287814074998719E-01
7.057084292606162E-01
6.798693009284553E-01
6.510093882529882E-01
6.188489338666723E-01
5.830821393369653E-01
5.433764887795304E-01
4.993724369696153E-01
3.678827241669876E-01
4.627261105252897E-01
5.422706618045119E-01
6.079729671629390E-01
6.616983017316926E-01
7.053221927486609E-01
7.405544953252564E-01
7.688765501710675E-01
7.915333743909128E-01
8.095505330221082E-01
8.237601997159498E-01
8.348288513898835E-01
8.432832637704948E-01
8.495337721036110E-01
8.538951511706152E-01
8.566065689818555E-01
8.578534179220817E-01
8.577960139246907E-01
8.566140749869277E-01
8.545831051511467E-01
8.530123088209673E-01
8.509618010811580E-01
8.476181648918292E-01
8.429525537279923E-01
8.369205749363651E-01
8.294621899187388E-01
8.205014307143087E-01
8.099459486528719E-01
7.976864091726305E-01
7.835957468863920E-01
7.675282955672584E-01
7.493188111489248E-01
7.287814072475229E-01
7.057084291488781E-01
6.798693009092964E-01
6.510093880918990E-01
6.188489338270584E-01
5.830821393060530E-01
5.433764885570880E-01
4.993724367684503E-01
3.678827236475914E-01
4.627261104435087E-01
5.422706616874040E-01
6.079729669427976E-01
6.616983011749498E-01
7.053221919547483E-01
7.405544949190205E-01
7.688765501862511E-01
7.915333741095246E-01
8.095505321683782E-01
8.237601990493510E-01
8.348288515107516E-01
8.432832639539122E-01
8.495337716539160E-01
8.538951505737891E-01
8.566065685786584E-01
8.578534180655576E-01
8.577960137431802E-01
8.566140753208119E-01
8.545831059104210E-01
8.530123093216871E-01
8.509618015013887E-01
8.476181654980717E-01
8.429525543832341E-01
8.369205754111921E-01
8.294621901799052E-01
8.205014309784097E-01
8.099459489908367E-01
7.976864094007611E-01
7.835957468247895E-01
7.675282953353605E-01
7.493188110236759E-01
7.287814070681513E-01
7.057084287990625E-01
6.798693007206605E-01
6.510093877570560E-01
6.188489335088647E-01
5.830821390807827E-01
5.433764883340375E-01
4.993724367666145E-01
3.678827235971928E-01
4.627261104243734E-01
5.422706609651189E-01
6.079729662500049E-01
6.616983008356278E-01
7.053221919505133E-01
7.405544945037319E-01
7.688765490280842E-01
7.915333730368972E-01
8.095505317673769E-01
8.237601985866537E-01
8.348288506018769E-01
8.432832633271299E-01
8.495337712533978E-01
8.538951498257192E-01
8.566065677327749E-01
8.578534170983172E-01
8.577960130449843E-01
8.566140749094331E-01
8.545831059381488E-01
8.530123095575571E-01
8.509618021839820E-01
8.476181661416231E-01
8.429525549584690E-01
8.369205759655796E-01
8.294621907752131E-01
8.205014314995621E-01
8.099459493144858E-01
7.976864096366042E-01
7.835957470841084E-01
7.675282954018448E-01
7.493188109090059E-01
7.287814070694260E-01
7.057084287830648E-01
6.798693006236280E-01
6.510093878000782E-01
6.188489333612154E-01
5.830821389496503E-01
5.433764879502601E-01
4.993724364582401E-01
3.678827238041538E-01
4.627261093974643E-01
5.422706606540221E-01
6.079729664277372E-01
6.616983004932997E-01
7.053221909461788E-01
7.405544938006804E-01
7.688765490492598E-01
7.915333730333914E-01
8.095505315374654E-01
8.237601987723799E-01
8.348288509631026E-01
8.432832632424522E-01
8.495337709304167E-01
8.538951498143534E-01
8.566065685168076E-01
8.578534171714984E-01
8.577960131059444E-01
8.566140745387826E-01
8.545831060195285E-01
8.530123095554537E-01
8.509618020618093E-01
8.476181661496579E-01
8.429525550310610E-01
8.369205760354976E-01
8.294621907345296E-01
8.205014314417064E-01
8.099459492945524E-01
7.976864095094991E-01
7.835957469179790E-01
7.675282953541456E-01
7.493188108180528E-01
7.287814069393417E-01
7.057084286052705E-01
6.798693001461534E-01
6.510093876843782E-01
6.188489332861269E-01
5.830821391096110E-01
5.433764882138603E-01
4.993724368436462E-01

SCALARS FLUX_2 double 1
LOOKUP_TABLE default
2.068733314959815E-01
2.991684156511367E-01
3.624648160898956E-01
4.073865541076146E-01
4.402249034649004E-01
4.648098888810518E-01
4.835497181341981E-01
4.980127212657461E-01
5.092566837835932E-01
5.180177727462336E-01
5.248205380104815E-01
5.300426073577910E-01
5.339521624663038E-01
5.367273322981563E-01
5.384609168068569E-01
5.391492148098950E-01
5.386584867459767E-01
5.366547873989711E-01
5.324696164017648E-01
5.248500389440988E-01
5.161716219553342E-01
5.125021915655698E-01
5.090061552073122E-01
5.055342280476330E-01
5.019435998827213E-01
4.980914659789213E-01
4.938286197453353E-01
4.889928105793613E-01
4.834015606981522E-01
4.768441093199219E-01
4.690721100566855E-01
4.597886554024702E-01
4.486351168669071E-01
4.351751941245859E-01
4.188754365607966E-01
3.990813316169114E-01
3.749878514834126E-01
3.456030922289889E-01
3.097033144360661E-01
2.657772937358135E-01
2.068733325101463E-01
2.991684149582784E-01
3.624648157858642E-01
4.073865533133184E-01
4.402249040082907E-01
4.648098896043309E-01
4.835497183815368E-01
4.980127217458385E-01
5.092566843983682E-01
5.180177729049833E-01
5.248205382131464E-01
5.300426080960978E-01
5.339521631995948E-01
5.367273324804930E-01
5.384609167889411E-01
5.391492153037896E-01
5.386584877681860E-01
5.366547880597750E-01
5.324696161563868E-01
5.248500383578729E-01
5.161716220364987E-01
5.125021929662724E-01
5.090061568860703E-01
5.055342287560114E-01
5.019435998666872E-01
4.980914655615444E-01
4.938286192451747E-01
4.889928102108614E-01
4.834015603133345E-01
4.768441089242201E-01
4.690721098738967E-01
4.597886552562859E-01
4.486351166671181E-01
4.351751942404831E-01
4.188754370538488E-01
3.990813320270318E-01
3.749878515973138E-01
3.456030923041437E-01
3.097033145682940E-01
2.657772938778272E-01
2.068733331285008E-01
2.991684154745189E-01
3.624648162479263E-01
4.073865531696477E-01
4.402249037337161E-01
4.648098897534566E-01
4.835497185297911E-01
4.980127212653426E-01
5.092566840149793E-01
5.180177732045839E-01
5.248205386185214E-01
5.300426079802230E-01
5.339521626895485E-01
5.367273320627041E-01
5.384609167074460E-01
5.391492153668390E-01
5.386584875554153E-01
5.366547874471385E-01
5.324696153504351E-01
5.248500374390994E-01
5.161716210924849E-01
5.125021922162749E-01
5.090061571998420E-01
5.055342294149562E-01