# vtk DataFile Version 2.0
A mesh
ASCII
DATASET UNSTRUCTURED_GRID
POINTS 861 double
0.000000000000000E+00 0.000000000000000E+00 0.000000000000000E+00
5.000000000000000E-02 0.000000000000000E+00 0.000000000000000E+00
1.000000000000000E-01 0.000000000000000E+00 0.000000000000000E+00
1.500000000000000E-01 0.000000000000000E+00 0.000000000000000E+00
2.000000000000000E-01 0.000000000000000E+00 0.000000000000000E+00
2.500000000000000E-01 0.000000000000000E+00 0.000000000000000E+00
3.000000000000000E-01 0.000000000000000E+00 0.000000000000000E+00
3.500000000000000E-01 0.000000000000000E+00 0.000000000000000E+00
4.000000000000000E-01 0.000000000000000E+00 0.000000000000000E+00
4.500000000000001E-01 0.000000000000000E+00 0.000000000000000E+00
5.000000000000000E-01 0.000000000000000E+00 0.000000000000000E+00
5.500000000000000E-01 0.000000000000000E+00 0.000000000000000E+00
6.000000000000001E-01 0.000000000000000E+00 0.000000000000000E+00
6.500000000000000E-01 0.000000000000000E+00 0.000000000000000E+00
7.000000000000001E-01 0.000000000000000E+00 0.000000000000000E+00
7.500000000000001E-01 0.000000000000000E+00 0.000000000000000E+00
8.000000000000000E-01 0.000000000000000E+00 0.000000000000000E+00
8.500000000000001E-01 0.000000000000000E+00 0.000000000000000E+00
9.000000000000000E-01 0.000000000000000E+00 0.000000000000000E+00
9.500000000000001E-01 0.000000000000000E+00 0.000000000000000E+00
1.000000000000000E+00 0.000000000000000E+00 0.000000000000000E+00
1.050000000000000E+00 0.000000000000000E+00 0.000000000000000E+00
1.100000000000000E+00 0.000000000000000E+00 0.000000000000000E+00
1.150000000000000E+00 0.000000000000000E+00 0.000000000000000E+00
1.200000000000000E+00 0.000000000000000E+00 0.000000000000000E+00
1.250000000000000E+00 0.000000000000000E+00 0.000000000000000E+00
1.300000000000000E+00 0.000000000000000E+00 0.000000000000000E+00
1.350000000000000E+00 0.000000000000000E+00 0.000000000000000E+00
1.400000000000000E+00 0.000000000000000E+00 0.000000000000000E+00
1.450000000000000E+00 0.000000000000000E+00 0.000000000000000E+00
1.500000000000000E+00 0.000000000000000E+00 0.000000000000000E+00
1.550000000000000E+00 0.000000000000000E+00 0.000000000000000E+00
1.600000000000000E+00 0.000000000000000E+00 0.000000000000000E+00
1.650000000000000E+00 0.000000000000000E+00 0.000000000000000E+00
1.700000000000000E+00 0.000000000000000E+00 0.000000000000000E+00
1.750000000000000E+00 0.000000000000000E+00 0.000000000000000E+00
1.800000000000000E+00 0.000000000000000E+00 0.000000000000000E+00
1.850000000000000E+00 0.000000000000000E+00 0.000000000000000E+00
1.900000000000000E+00 0.000000000000000E+00 0.000000000000000E+00
1.950000000000000E+00 0.000000000000000E+00 0.000000000000000E+00
2.000000000000000E+00 0.000000000000000E+00 0.000000000000000E+00
0.000000000000000E+00 5.000000000000000E-02 0.000000000000000E+00
5.000000000000000E-02 5.000000000000000E-02 0.000000000000000E+00
1.000000000000000E-01 5.000000000000000E-02 0.000000000000000E+00
1.500000000000000E-01 5.000000000000000E-02 0.000000000000000E+00
2.000000000000000E-01 5.000000000000000E-02 0.000000000000000E+00
2.500000000000000E-01 5.000000000000000E-02 0.000000000000000E+00
3.000000000000000E-01 5.000000000000000E-02 0.000000000000000E+00
3.500000000000000E-01 5.000000000000000E-02 0.000000000000000E+00
4.000000000000000E-01 5.000000000000000E-02 0.000000000000000E+00
4.500000000000001E-01 5.000000000000000E-02 0.000000000000000E+00
5.000000000000000E-01 5.000000000000000E-02 0.000000000000000E+00
5.500000000000000E-01 5.000000000000000E-02 0.000000000000000E+00
6.000000000000001E-01 5.000000000000000E-02 0.000000000000000E+00
6.500000000000000E-01 5.000000000000000E-02 0.000000000000000E+00
7.000000000000001E-01 5.000000000000000E-02 0.000000000000000E+00
7.500000000000001E-01 5.000000000000000E-02 0.000000000000000E+00
8.000000000000000E-01 5.000000000000000E-02 0.000000000000000E+00
8.500000000000001E-01 5.000000000000000E-02 0.000000000000000E+00
9.000000000000000E-01 5.000000000000000E-02 0.000000000000000E+00
9.500000000000001E-01 5.000000000000000E-02 0.000000000000000E+00
1.000000000000000E+00 5.000000000000000E-02 0.000000000000000E+00
1.050000000000000E+00 5.000000000000000E-02 0.000000000000000E+00
1.100000000000000E+00 5.000000000000000E-02 0.000000000000000E+00
1.150000000000000E+00 5.000000000000000E-02 0.000000000000000E+00
1.200000000000000E+00 5.000000000000000E-02 0.000000000000000E+00
1.250000000000000E+00 5.000000000000000E-02 0.000000000000000E+00
1.300000000000000E+00 5.000000000000000E-02 0.000000000000000E+00
1.350000000000000E+00 5.000000000000000E-02 0.000000000000000E+00
1.400000000000000E+00 5.000000000000000E-02 0.000000000000000E+00
1.450000000000000E+00 5.000000000000000E-02 0.000000000000000E+00
1.500000000000000E+00 5.000000000000000E-02 0.000000000000000E+00
1.550000000000000E+00 5.000000000000000E-02 0.000000000000000E+00
1.600000000000000E+00 5.000000000000000E-02 0.000000000000000E+00
1.650000000000000E+00 5.000000000000000E-02 0.000000000000000E+00
1.700000000000000E+00 5.000000000000000E-02 0.000000000000000E+00
1.750000000000000E+00 5.000000000000000E-02 0.000000000000000E+00
1.800000000000000E+00 5.000000000000000E-02 0.000000000000000E+00
1.850000000000000E+00 5.000000000000000E-02 0.000000000000000E+00
1.900000000000000E+00 5.000000000000000E-02 0.000000000000000E+00
1.950000000000000E+00 5.000000000000000E-02 0.000000000000000E+00
2.000000000000000E+00 5.000000000000000E-02 0.000000000000000E+00
0.000000000000000E+00 1.000000000000000E-01 0.000000000000000E+00
5.000000000000000E-02 1.000000000000000E-01 0.000000000000000E+00
1.000000000000000E-01 1.000000000000000E-01 0.000000000000000E+00
1.500000000000000E-01 1.000000000000000E-01 0.000000000000000E+00
2.000000000000000E-01 1.000000000000000E-01 0.000000000000000E+00
2.500000000000000E-01 1.000000000000000E-01 0.000000000000000E+00
3.000000000000000E-01 1.000000000000000E-01 0.000000000000000E+00
3.500000000000000E-01 1.000000000000000E-01 0.000000000000000E+00
4.000000000000000E-01 1.000000000000000E-01 0.000000000000000E+00
4.500000000000001E-01 1.000000000000000E-01 0.000000000000000E+00
5.000000000000000E-01 1.000000000000000E-01 0.000000000000000E+00
5.500000000000000E-01 1.000000000000000E-01 0.000000000000000E+00
6.000000000000001E-01 1.000000000000000E-01 0.000000000000000E+00
6.500000000000000E-01 1.000000000000000E-01 0.000000000000000E+00
7.000000000000001E-01 1.000000000000000E-01 0.000000000000000E+00
7.500000000000001E-01 1.000000000000000E-01 0.000000000000000E+00
8.000000000000000E-01 1.000000000000000E-01 0.000000000000000E+00
8.500000000000001E-01 1.000000000000000E-01 0.000000000000000E+00
9.000000000000000E-01 1.000000000000000E-01 0.000000000000000E+00
9.500000000000001E-01 1.000000000000000E-01 0.000000000000000E+00
1.000000000000000E+00 1.000000000000000E-01 0.000000000000000E+00
1.050000000000000E+00 1.000000000000000E-01 0.000000000000000E+00
1.100000000000000E+00 1.000000000000000E-01 0.000000000000000E+00
1.150000000000000E+00 1.000000000000000E-01 0.000000000000000E+00
1.200000000000000E+00 1.000000000000000E-01 0.000000000000000E+00
1.250000000000000E+00 1.000000000000000E-01 0.000000000000000E+00
1.300000000000000E+00 1.000000000000000E-01 0.000000000000000E+00
1.350000000000000E+00 1.000000000000000E-01 0.000000000000000E+00
1.400000000000000E+00 1.000000000000000E-01 0.000000000000000E+00
1.450000000000000E+00 1.000000000000000E-01 0.000000000000000E+00
1.500000000000000E+00 1.000000000000000E-01 0.000000000000000E+00
1.550000000000000E+00 1.000000000000000E-01 0.000000000000000E+00
1.600000000000000E+00 1.000000000000000E-01 0.000000000000000E+00
1.650000000000000E+00 1.000000000000000E-01 0.000000000000000E+00
1.700000000000000E+00 1.000000000000000E-01 0.000000000000000E+00
1.750000000000000E+00 1.000000000000000E-01 0.000000000000000E+00
1.800000000000000E+00 1.000000000000000E-01 0.000000000000000E+00
1.850000000000000E+00 1.000000000000000E-01 0.000000000000000E+00
1.900000000000000E+00 1.000000000000000E-01 0.000000000000000E+00
1.950000000000000E+00 1.000000000000000E-01 0.000000000000000E+00
2.000000000000000E+00 1.000000000000000E-01 0.000000000000000E+00
0.000000000000000E+00 1.500000000000000E-01 0.000000000000000E+00
5.000000000000000E-02 1.500000000000000E-01 0.000000000000000E+00
1.000000000000000E-01 1.500000000000000E-01 0.000000000000000E+00
1.500000000000000E-01 1.500000000000000E-01 0.000000000000000E+00
2.000000000000000E-01 1.500000000000000E-01 0.000000000000000E+00
2.500000000000000E-01 1.500000000000000E-01 0.000000000000000E+00
3.000000000000000E-01 1.500000000000000E-01 0.000000000000000E+00
3.500000000000000E-01 1.500000000000000E-01 0.000000000000000E+00
4.000000000000000E-01 1.500000000000000E-01 0.000000000000000E+00
4.500000000000001E-01 1.500000000000000E-01 0.000000000000000E+00
5.000000000000000E-01 1.500000000000000E-01 0.000000000000000E+00
5.500000000000000E-01 1.500000000000000E-01 0.000000000000000E+00
6.000000000000001E-01 1.500000000000000E-01 0.000000000000000E+00
6.500000000000000E-01 1.500000000000000E-01 0.000000000000000E+00
7.000000000000001E-01 1.500000000000000E-01 0.000000000000000E+00
7.500000000000001E-01 1.500000000000000E-01 0.000000000000000E+00
8.000000000000000E-01 1.500000000000000E-01 0.000000000000000E+00
8.500000000000001E-01 1.500000000000000E-01 0.000000000000000E+00
9.000000000000000E-01 1.500000000000000E-01 0.000000000000000E+00
9.500000000000001E-01 1.500000000000000E-01 0.000000000000000E+00
1.000000000000000E+00 1.500000000000000E-01 0.000000000000000E+00
1.050000000000000E+00 1.500000000000000E-01 0.000000000000000E+00
1.100000000000000E+00 1.500000000000000E-01 0.000000000000000E+00
1.150000000000000E+00 1.500000000000000E-01 0.000000000000000E+00
1.200000000000000E+00 1.500000000000000E-01 0.000000000000000E+00
1.250000000000000E+00 1.500000000000000E-01 0.000000000000000E+00
1.300000000000000E+00 1.500000000000000E-01 0.000000000000000E+00
[...]
CELL_DATA 800
SCALARS FLUX_1 double 1
LOOKUP_TABLE default
1.970058023288031E-02
1.264732535366861E-02
9.558277887923666E-03
7.239246467035843E-03
5.498287223349585E-03
4.191302563659269E-03
3.210114434829180E-03
2.473510587260531E-03
1.920522752364309E-03
1.505380381229847E-03
1.193722274561477E-03
9.597525471685139E-04
7.841055310619823E-04
6.522428987343375E-04
5.532503390898920E-04
4.789341887538051E-04
4.231432482732895E-04
3.812596508985429E-04
3.498166438370026E-04
2.990655503035229E-04
1.683823725280858E-04
1.131178567239334E-04
8.532134929718257E-05
6.432126581079153E-05
4.845584729133500E-05
3.646964098271681E-05
2.741415736544556E-05
2.057281672907651E-05
1.540424646970664E-05
1.149944233281665E-05
8.549403843705270E-06
6.320682967260978E-06
4.636911196304556E-06
3.364843329240895E-06
2.403813595305069E-06
1.677769799168482E-06
1.129255151540979E-06
7.148615702603938E-07
4.017946721730160E-07
1.391482619426300E-07
1.924648385960594E-07
1.394509571834006E-07
1.133849032274766E-07
9.252072344501414E-08
7.582030539435708E-08
6.245270762753055E-08
5.175281559407119E-08
4.318824838276544E-08
3.633286972215865E-08
3.084558526039802E-08
2.645337116764435E-08
2.293768963682136E-08
2.012361537606035E-08
1.787113207356284E-08
1.606816578415937E-08
1.462500860864513E-08
1.346985521200157E-08
1.254523009672148E-08
1.180512786762287E-08
1.051034749148318E-08
5.846636913023728E-09
4.315974578646873E-09
3.454958416660760E-09
2.763127755218176E-09
2.207238463885914E-09
1.760578722651637E-09
1.401685454603008E-09
1.113312973361038E-09
8.816042862914808E-10
6.954252326166323E-10
5.458294601592247E-10
4.256285315616824E-10
3.290465025486291E-10
2.514423738857746E-10
1.890870801829788E-10
1.389842993160761E-10
9.872647192836990E-11
6.637911240188596E-11
4.038785216176817E-11
1.837246219464971E-11
3.085544195014355E-11
2.235639998272634E-11
1.817756076942813E-11
1.483267194292272E-11
1.215530612657911E-11
1.001224903669241E-11
8.296871308898093E-12
6.923823076586021E-12
5.824787326203841E-12
4.945080734553979E-12
4.240932860271358E-12
3.677308313674712E-12
3.226163545468295E-12
2.865051519547823E-12
2.576004844391162E-12
2.344641792423683E-12
2.159450726701529E-12
2.011217331041935E-12
1.892566145019059E-12
1.684990459893467E-12
9.373170039229382E-13
6.919253617500009E-13
5.538895813025594E-13
4.429771623423715E-13
3.538584958652823E-13
2.822512151918213E-13
2.247144179287471E-13
1.784833223172775E-13
1.413364128071001E-13
1.114886908808439E-13
8.750590157388875E-14
6.823561406709448E-14
5.275184460885140E-14
4.031056076440997E-14
3.031392886444609E-14
2.228158665661004E-14
1.582756074173990E-14
1.064171962192569E-14
6.474871134690121E-15
2.945423407534701E-15
4.946660932373400E-15
3.584117529794488E-15
2.914177338612230E-15
2.377933816061432E-15
1.948705775614670E-15
1.605136663899546E-15
1.330131949850908E-15
1.110008573883159E-15
9.338141373075423E-16
7.927819577686106E-16
6.798948765867637E-16
5.895361149238691E-16
5.172098068665330E-16
4.593173043472911E-16
4.129781237923606E-16
3.758866255661657E-16
3.461972951941498E-16
3.224329184476695E-16
3.034110814755240E-16
2.701331095125708E-16
1.502681248917683E-16
1.109276010571333E-16
8.879807837804386E-17
7.101689959370175E-17
5.672963621501657E-17
4.524975080766274E-17
3.602560721396472E-17
2.861396310620589E-17
2.265867112467104E-17
1.787356513877965E-17
1.402870927491782E-17
1.093934894361915E-17
8.457032936325308E-18
6.462479987081926E-18
4.859847020269439E-18
3.572123659860025E-18
2.537431695272394E-18
1.706051684241274E-18
1.038033813804272E-18
4.722023078746487E-19
7.930352908056604E-19
5.745960207057270E-19
4.671930226834407E-19
3.812239126792332E-19
3.124112350910158E-19
2.573311650911263E-19
2.132431537315422E-19
1.779535699374998E-19
1.497065547977250E-19
1.270966575270926E-19
1.089989062404899E-19
9.451283415836893E-20
8.291767622713199E-20
7.363650692960617E-20
6.620753493628151E-20
6.026112634180465E-20
5.550141326114678E-20
5.169157270777010E-20
4.864204329366782E-20
4.330700890706776E-20
2.409057902927426E-20
1.778361273702874E-20
1.423586756243033E-20
1.138523711072025E-20
9.094741719337847E-21
7.254317565166350E-21
5.775527832603918E-21
4.587313111461819E-21
3.632576821068221E-21
2.865441581977441E-21
2.249044697333771E-21
1.753766811457041E-21
1.355808628426431E-21
1.036047298560713E-21
7.791175194094496E-22
5.726731959434489E-22
4.067941809373941E-22
2.735095879904220E-22
1.664147712265800E-22
7.570219581733180E-23
1.271372711938578E-22
9.211767869392042E-23
7.489912077486430E-23
6.111678576453247E-23
5.008492355923168E-23
4.125463583037360E-23
3.418656518886801E-23
2.852903463864056E-23
2.400054963188362E-23
2.037579210307134E-23
1.747440960471333E-23
1.515204174014157E-23
1.329313740696663E-23
1.180520546792659E-23
1.061421278707458E-23
9.660900657248112E-24
8.897836339989568E-24
8.287053015141661E-24
7.798160714093511E-24
6.942862442375176E-24
3.862136420373344E-24
2.851020656416456E-24
2.282255753241231E-24
1.825250395454009E-24
1.458044374336559E-24
1.162992555693133E-24
9.259169886316978E-25
7.354256208580064E-25
5.823648831106691E-25
4.593798381001687E-25
3.605607580484136E-25
2.811591480279318E-25
2.173595693378374E-25
1.660962984799344E-25
1.249060117569478E-25
9.180941663283318E-26
6.521614195678483E-26
4.384831679701554E-26
2.667916566311253E-26
1.213637111889732E-26
2.038230317619519E-26
1.476805689941224E-26
1.200762430189415E-26
9.798077659760460E-27
8.029479372610203E-27
6.613831546189902E-27
5.480697593155454E-27
4.573697609433330E-27
3.847703151082718E-27
3.266591835740868E-27
2.801450047213261E-27
2.429134317468118E-27
2.131119806549947E-27
1.892578585692609E-27
1.701641862937746E-27
1.548809442757542E-27
1.426477036915808E-27
1.328557907575442E-27
1.250180017229854E-27
1.113060913472501E-27
6.191672566895030E-28
4.570679143511968E-28
3.658850646358020E-28
2.926192027206122E-28
2.337497273869257E-28
1.864478184832237E-28
1.484405053000911E-28
1.179014448502988E-28
9.336316168720568E-29
7.364653217327333E-29
5.780412474786871E-29
4.507467355768609E-29
3.484649779802227E-29
2.662810897610215E-29
2.002459370462803E-29
1.471863716187055E-29
1.045527534982977E-29
7.029643459727339E-30
4.277131624268204E-30
1.945670168340410E-30
3.267635676553595E-30
2.367574910099626E-30
1.925029828144342E-30
1.570801291390271E-30
1.287264401325795E-30
1.060311573741355E-30
8.786506056152683E-31
7.332428233384482E-31
6.168533569342616E-31
5.236911638402077E-31
4.491208913728221E-31
3.894322413831622E-31
3.416553616735385E-31
3.034130788411529E-31
2.728026202862885E-31
2.483009403775366E-31
2.286889402085442E-31
2.129908104451571E-31
2.004254792221972E-31
1.784429155028421E-31
9.926322039223840E-32
7.327589248956129E-32
5.865770484154673E-32
4.691192017905064E-32
3.747412524443256E-32
2.989081124819468E-32
2.379758167879587E-32
1.890164217216127E-32
1.496773103692228E-32
1.180681436322034E-32
9.267002487810513E-33
7.226251329723804E-33
5.586497878078788E-33
4.268948028099709E-33
3.210290334506562E-33
2.359653744003525E-33
1.676163118580709E-33
1.126975086633205E-33
6.856998398105855E-34
3.119264777949421E-34
5.238617035831047E-34
3.795661114307803E-34
3.086184817946664E-34
2.518295216252522E-34
2.063736549010598E-34
1.699891919086576E-34
1.408657972258185E-34
1.175544151657508E-34
9.889517095736115E-35
8.395966033232740E-35
7.200475609540821E-35
6.243563329029453E-35
5.477617325123399E-35
4.864527397248878E-35
4.373788810082777E-35
3.980984508257648E-35
3.666570228011074E-35
3.414902058125849E-35
3.213458065748186E-35
2.861022960070337E-35
1.591540371621669E-35
1.174906783307265E-35
9.405519433036473E-36
7.522466891382802E-36
6.009424999165548E-36
4.793688450755732E-36
3.816838178696221E-36
3.031934176725361E-36
2.401259919350789E-36
1.894509991897922E-36
1.487333842288937E-36
1.160165678315127E-36
8.972842841458619E-37
6.860575779904648E-37
5.163356100865775E-37
3.799628331035728E-37
2.703862083760169E-37
1.823403165241310E-37
1.115943412637535E-37
5.189554608692121E-38
8.714912681474296E-38
6.373037610940550E-38
5.235114925347078E-38
4.323844666423655E-38
3.593871431466279E-38
3.008861059693215E-38
2.539692943381257E-38
2.163011289731690E-38
1.860063259042153E-38
1.615766180602000E-38
1.417957448273663E-38
1.256789790339144E-38
1.124241845445219E-38
1.013719718662905E-38
9.197297247348929E-39
8.376060753662526E-39
7.632800109161089E-39
6.930789510431524E-39
6.235457475304205E-39
5.170840284269784E-39
2.568238507456391E-39
1.899139835673891E-39
1.523373864416802E-39
1.221424023148417E-39
9.787843770412427E-40
7.837989822755821E-40
6.271017881571329E-40
5.011665736950829E-40
3.999452919034468E-40
3.185774432662826E-40
2.531565128971191E-40
2.005422479299729E-40
1.582097543617404E-40
1.241281617651677E-40
9.666302501914200E-41
7.449777272412521E-41
5.657042708497334E-41
4.202255371841406E-41
3.015798732518257E-41
2.292798381161302E-41
5.566789798068182E-41
5.504977471160933E-41
6.432474662051807E-41
7.668923163689702E-41
9.273485160050598E-41
1.132306189515286E-40
1.391597892112072E-40
1.717670283991754E-40
2.126181578961939E-40
2.636753444356885E-40
3.273913457220010E-40
4.068273383534044E-40
5.057999883238214E-40
6.290648298811802E-40
7.825447634866219E-40
9.736146519102009E-40
1.211455689317383E-39
1.507496571095477E-39
1.875962663261513E-39
2.075997624526123E-39
1.176899082401330E-39
1.320775796064858E-39
1.649993482004834E-39
2.061307664537838E-39
2.575183628132365E-39
3.217189683820200E-39
4.019269340968369E-39
5.021330681316443E-39
6.273232015812273E-39
7.837262622104041E-39
9.791241993633335E-39
1.223239180575950E-38
1.528217325143613E-38
1.909233043161900E-38
2.385244049371049E-38
2.979934618068613E-38
3.722894011425899E-38
4.651088714767237E-38
5.810701730950134E-38
9.366716484995472E-38
2.643464675568465E-37
2.837473054010810E-37
3.531370160676096E-37
4.394958113339806E-37
5.469734394169380E-37
6.807344593416153E-37
8.472064104480633E-37
1.054388671145400E-36
1.312236848320998E-36
1.633141168242113E-36
2.032521856785575E-36
2.529570118450330E-36
3.148170319979936E-36
3.918047691740358E-36
4.876196696669941E-36
6.068658703371633E-36
7.552734384823348E-36
9.399737153795831E-36
1.169841994418503E-35
1.294660029218288E-35
7.339569450560033E-36
8.237409294803120E-36
1.029116684067231E-35
1.285696887848175E-35
1.606247875498405E-35
2.006718894576868E-35
2.507035671939962E-35
3.132091832775221E-35
3.912987501030118E-35
4.888576708701263E-35
6.107400606458777E-35
7.630102663906648E-35
9.532446029524879E-35
1.190908318123212E-34
1.487826542927464E-34
1.858772659618345E-34
2.322203362057579E-34
2.901176981943975E-34
3.624500772879710E-34
5.842611345386931E-34
1.648895513600153E-33
1.769910770662235E-33
2.202738131952470E-33
2.741412368569293E-33
3.411818075661689E-33
4.246169862977185E-33
5.284560344489923E-33
6.576886685115993E-33
8.185248279728208E-33
1.018693077872482E-32
1.267811984977161E-32
1.577852313091827E-32
1.963712247107428E-32
2.443933286686056E-32
3.041591210000411E-32
3.785404920482253E-32
4.711116459338177E-32
5.863208496759583E-32
7.297041831418260E-32
8.075610583103961E-32
4.578152054803589E-32
5.138191353506562E-32
6.419249376337436E-32
8.019701821242410E-32
1.001918036378495E-31
1.251717051326759E-31
1.563796158661294E-31
1.953683081373504E-31
2.440776926906223E-31
3.049313403855419E-31
3.809570687280418E-31
4.759375931328280E-31
5.945987386803821E-31
7.428445769814004E-31
9.280511875543978E-31
1.159433660027504E-30
1.448504597625956E-30
1.809646935119824E-30
2.260829572205626E-30
3.644404936368670E-30
1.028520056201443E-29
1.104004899217946E-29
1.373986604115536E-29
1.709991676328835E-29
2.128165969271720E-29
2.648603765422825E-29
3.296313355021180E-29
4.102418744676361E-29
5.105655240887688E-29
6.354230774864599E-29
7.908142409791145E-29
9.842059344290958E-29
1.224891094735650E-28
1.524435223846730E-28
1.897232138997764E-28
2.361195630315567E-28
2.938620261601997E-28
3.657252677849349E-28
4.551624898395191E-28
5.037267299405839E-28
2.855681982192093E-28
3.205013790196925E-28
4.004090419838862E-28
5.002393480890532E-28
6.249594268319031E-28
7.807748164515248E-28
9.754382249983728E-28
1.218635271962630E-27
1.522466403317248E-27
1.902048958009183E-27
2.376269342155033E-27
2.968722735915326E-27
3.708887088846504E-27
4.633589816723335E-27
5.788840176399007E-27
7.232118489846931E-27
9.035236119391653E-27
1.128790849427681E-26
1.410221896710604E-26
2.273245053466540E-26
6.415527832318070E-26
6.886374373783753E-26
8.570420427668317E-26
1.066629583582104E-25
1.327471246217564E-25
1.652101101130549E-25
2.056118395132028E-25
2.558937132786428E-25
3.184718966114183E-25
3.963534220195276E-25
4.932806844751817E-25
6.139112725115202E-25
7.640417765753328E-25
9.508863291664617E-25
1.183423261288799E-24
1.472826532890714E-24
1.833002668567211E-24
2.281258999578212E-24
2.839135322822235E-24
3.142061096748743E-24
1.781268836376913E-24
1.999169102244946E-24
2.497603559279852E-24
3.120308098160611E-24
3.898265836173784E-24
4.870184626459756E-24
6.084422995401789E-24
7.601396256282153E-24
9.496582517140509E-24
1.186427814894212E-23
1.482228957010628E-23
1.851779479054704E-23
2.313466636061356E-23
2.890262008358146E-23
3.610864469253971E-23
4.511128118356087E-23
5.635846228376283E-23
7.040979966997246E-23
8.796442785476683E-23
1.417966214879292E-22
4.001769058277510E-22
4.295465722072285E-22
5.345911385670099E-22
6.653240973751683E-22
8.280274823384420E-22
1.030519583181609E-21
1.282530633309023E-21
1.596170370967288E-21
1.986509941349659E-21
2.472306101440534E-21
3.076902527387969E-21
3.829351534395421E-21
4.765810110476594E-21
5.931277346859419E-21
7.381756752756904E-21
9.186947358940225E-21
1.143359292412575E-20
1.422965018161361E-20
1.770947642047337E-20
1.959901539643610E-20
1.111089640665082E-20
1.247007770011903E-20
1.557912755521246E-20
1.946332823405450E-20
2.431594096678394E-20
3.037841102970250E-20
3.795238103062428E-20
4.741469935624198E-20
5.923617053772592E-20
7.400498047263504E-20
9.245596204209564E-20
1.155071572553185E-19
1.443054950975498E-19
1.802838578160066E-19
2.252323750183645E-19
2.813874928735251E-19
3.515432501175386E-19
4.391902974832960E-19
5.486895775668393E-19
8.844748978879505E-19
2.496155579766381E-18
2.679352699693551E-18
3.334581866156171E-18
4.150045726853859E-18
5.164929285371267E-18
6.428000142328345E-18
7.999951896108701E-18
9.956320616519373E-18
1.239111453496943E-17
1.542133136652710E-17
1.919258033206609E-17
2.388607903221291E-17
2.972736138974919E-17
3.699711509808563E-17
4.604466934132241E-17
5.730478090334718E-17
7.131852527896366E-17
8.875929665528279E-17
1.104651661251369E-16
1.222514116314321E-16
6.930566371465102E-17
7.778373408851990E-17
9.717683756487035E-17
1.214050452805780E-16
1.516738493341076E-16
1.894892960886350E-16
2.367329206043430E-16
2.957553637839673E-16
3.694933302207659E-16
4.616157060717116E-16
5.767061071569754E-16
7.204909400991773E-16
9.001243238502740E-16
1.124544048083913E-15
1.404916279421982E-15
1.755191142177137E-15
2.192796816935283E-15
2.739506692357863E-15
3.422522715972648E-15
5.517027393071532E-15
1.557009559437389E-14
1.671281149437679E-14
2.079988877463179E-14
2.588645083339919E-14
3.221691923503355E-14
4.009548824118902E-14
4.990074207812916E-14
6.210384682109876E-14
7.729119105964003E-14
9.619256328238002E-14
1.197162199725297E-13
1.489925295205888E-13
1.854282891494344E-13
2.307743249109338E-13
2.872096230968201E-13
3.574460357808600E-13
4.448585918459307E-13
5.536476752548760E-13
6.890408636218688E-13
7.625591053209502E-13
4.323031056299946E-13
4.851861739959984E-13
6.061531832024604E-13
7.572797849542716E-13
9.460853932509054E-13
1.181964168470138E-12
1.476652430650944E-12
1.844812608634026E-12
2.304762779874210E-12
2.879388099708764E-12
3.597279468907837E-12
4.494156094739264E-12
5.614642726108289E-12
7.014489990399330E-12
8.763348306494440E-12
1.094823339202841E-11
1.367785579371481E-11
1.708802985967367E-11
2.134843128111337E-11
3.441317704842047E-11
9.712049953257736E-11
1.042483388165059E-10
1.297420157615623E-10
1.614701092120257E-10
2.009572305155125E-10
2.501008310054278E-10
3.112623791099524E-10
3.873808346006061E-10
4.821138726914780E-10
6.000136441474096E-10
7.467455170978696E-10
9.293603116277938E-10
1.156633108673501E-09
1.439484913807587E-09
1.791507437873769E-09
2.229616211445787E-09
2.774863416833961E-09
3.453449496176068E-09
4.297982145819024E-09
4.756561755384914E-09
2.696546936002160E-09
3.026411963830094E-09
3.780959441710617E-09
4.723631306878894E-09
5.901330883684773E-09
7.372655471229516E-09
9.210811894606182E-09
1.150725896373269E-08
1.437625807296633E-08
1.796055835989357E-08
2.243849929250630E-08
2.803288407915561E-08
3.502206540425014E-08
4.375379506854221E-08
5.466252663292855E-08
6.829103197139370E-08
8.531740728041165E-08
1.065888122484480E-07
1.331636211024822E-07
2.146566747254465E-07
8.592753102268511E-07
9.427338349539941E-07
1.247867678633526E-06
1.651760607029235E-06
2.186375999993555E-06
2.894021987315419E-06
3.830699414401027E-06
5.070533328716764E-06
6.711638649943126E-06
8.883884172139654E-06
1.175916925875996E-05
1.556502641703556E-05
2.060262610963887E-05
2.727060850269799E-05
3.609662792345393E-05
4.777910609163043E-05
6.324249798646772E-05
8.371044343499972E-05
1.108025927609368E-04
1.259051744538518E-04
8.354562954801101E-05
9.715511086071767E-05
1.294155922566600E-04
1.723881047539096E-04
2.296295318830371E-04
3.058777984894416E-04
4.074440266334586E-04
5.427349035111099E-04
7.229484970858959E-04
9.630011111059697E-04
1.282761893921410E-03
1.708697387763920E-03
2.276062135192060E-03
3.031816655558340E-03
4.038514307411105E-03
5.379478745583259E-03
7.165700501731129E-03
9.545023505530770E-03
1.271438189751930E-02
2.418286578558360E-02

SCALARS FLUX_2 double 1
LOOKUP_TABLE default
3.332091191847467E-02
2.368172016583073E-02
1.797719949312845E-02
1.368241340104615E-02
1.044898093753501E-02
8.014614683706544E-03
6.181844952654420E-03
4.802001747865319E-03
3.763155164427748E-03
2.981036007887082E-03
2.392200148018527E-03
1.948882127024025E-03
1.615120566889034E-03
1.363841083722173E-03
1.174660085967617E-03
1.032231308593045E-03
9.250009599642151E-04
8.442705032031846E-04
7.834910479758907E-04
6.780557023101264E-04
3.881720095339192E-04
2.642733156660834E-04
2.028861290605879E-04
1.556523035684178E-04
1.193086861011705E-04
9.134445994900907E-05
6.982769089396039E-05
5.327186354970231E-05
4.053318811833648E-05
3.073158338926215E-05
2.318987737438595E-05
1.738702546198168E-05
1.292211431452154E-05
9.486664826670351E-06
6.843320769168430E-06
4.809450876753764E-06
3.244531567074051E-06
2.040438650539924E-06
1.113977350202636E-06
3.996818178981292E-07
5.460943571080779E-07
4.244605797248879E-07
3.467486936366574E-07
2.844390081193462E-07
2.344788655375767E-07
1.944206334013019E-07
1.623017906806804E-07
1.365487805577538E-07
1.158999191974489E-07
9.934358370727196E-08
8.606865100854977E-08
7.542475953509182E-08
6.689044691219951E-08
6.004760262664078E-08
5.456098408037351E-08
5.016179248459603E-08
4.663450394919645E-08
4.380631060024039E-08
4.153865442785606E-08
3.725831818051996E-08
2.078064230980635E-08
1.544691696175031E-08
1.249468836533896E-08
1.009568776775269E-08
8.146243922443694E-09
6.562112884778771E-09
5.274837464903526E-09
4.228788894920584E-09
3.378762867957837E-09
2.688026063522593E-09
2.126728741008582E-09
1.670614802619284E-09
1.299973581917927E-09
9.987880602298324E-10
7.540427016243440E-10
5.551609950164099E-10
3.935483971364950E-10
2.622209249472903E-10
1.555033473706861E-10
7.048952472702285E-11
1.157673524659153E-10
8.998202765016444E-11
7.350776969370154E-11
6.029864707334953E-11
4.970752237076189E-11
4.121551834523085E-11
3.440659725377998E-11
2.894717845343322E-11
2.456979571727514E-11
2.105999360837709E-11
1.824582094262635E-11
1.598940660730501E-11
1.418020502042036E-11
1.272958031433340E-11
1.156646391361578E-11
1.063387276447730E-11
9.886117637892519E-12
9.286564736441174E-12
8.805840942168439E-12
7.898446114574715E-12
4.405319175036533E-12
3.274614830104828E-12
2.648767512636455E-12
2.140199818918741E-12